>>>  VASP 5.4.4 with BEEF-vdw and vtst
--------------------------------------------------------
>>>  Job information
     SLURM_JOBID=8740397
     SLURM_JOB_NODELIST=cpn-q07-36-01
     SLURM_NNODES=1
     SLURMTMPDIR=/scratch/8740397
     working directory = /projects/academic/ericwalk/ruthbell/Ads_Ag-SSZ13/SULPHURS/SO2-S/PBE
--------------------------------------------------------
>>>  Module information
--------------------------------------------------------
>>>  Running Configuration
NPROCS=16
--------------------------------------------------------
>>>  Job started at Mon Jun 27 14:00:16 EDT 2022
--------------------------------------------------------
 running on   16 total cores
 distrk:  each k-point on   16 cores,    1 groups
 distr:  one band on    4 cores,    4 groups
 using from now: INCAR     
 vasp.5.4.4.18Apr17-6-g9f103f2a35 (build Dec 31 2018 11:41:54) complex          
  
 POSCAR found type information on POSCAR  O  Si Al Ag S 
 POSCAR found :  5 types and     114 ions
 scaLAPACK will be used
 LDA part: xc-table for Pade appr. of Perdew
 POSCAR found type information on POSCAR  O  Si Al Ag S 
 POSCAR found :  5 types and     114 ions
 POSCAR, INCAR and KPOINTS ok, starting setup
 FFT: planning ...
 WAVECAR not read
 entering main loop
       N       E                     dE             d eps       ncg     rms          rms(c)
DAV:   1     0.440636143228E+04    0.44064E+04   -0.26124E+05  1800   0.103E+03
DAV:   2    -0.424453677523E+03   -0.48308E+04   -0.46511E+04  2104   0.296E+02
DAV:   3    -0.943738179303E+03   -0.51928E+03   -0.51555E+03  2096   0.102E+02
DAV:   4    -0.954222762660E+03   -0.10485E+02   -0.10444E+02  2152   0.158E+01
DAV:   5    -0.954501069874E+03   -0.27831E+00   -0.27795E+00  2152   0.237E+00    0.874E+01
DAV:   6    -0.599126685318E+03    0.35537E+03   -0.72602E+02  2024   0.396E+01    0.283E+01
DAV:   7    -0.688364922708E+03   -0.89238E+02   -0.85492E+01  2072   0.129E+01    0.193E+01
DAV:   8    -0.757522502535E+03   -0.69158E+02   -0.29673E+01  2112   0.831E+00    0.113E+01
DAV:   9    -0.835369072177E+03   -0.77847E+02   -0.58203E+01  2032   0.916E+00    0.499E+00
DAV:  10    -0.849531603667E+03   -0.14163E+02   -0.82886E+00  2112   0.371E+00    0.355E+00
DAV:  11    -0.865608811301E+03   -0.16077E+02   -0.10557E+01  1936   0.401E+00    0.169E+00
DAV:  12    -0.868523123576E+03   -0.29143E+01   -0.15412E+00  1968   0.156E+00    0.909E-01
DAV:  13    -0.869746479842E+03   -0.12234E+01   -0.53604E-01  1944   0.944E-01    0.413E-01
DAV:  14    -0.869881323097E+03   -0.13484E+00   -0.56538E-02  1984   0.353E-01    0.246E-01
DAV:  15    -0.869900711258E+03   -0.19388E-01   -0.12036E-02  2048   0.233E-01    0.134E-01
DAV:  16    -0.869904518406E+03   -0.38071E-02   -0.39147E-03  2032   0.134E-01    0.877E-02
DAV:  17    -0.869910040161E+03   -0.55218E-02   -0.17786E-03  2056   0.921E-02    0.391E-02
DAV:  18    -0.869914170649E+03   -0.41305E-02   -0.99650E-04  1992   0.638E-02    0.422E-02
DAV:  19    -0.869914708101E+03   -0.53745E-03   -0.29696E-04  2064   0.390E-02    0.211E-02
DAV:  20    -0.869915112393E+03   -0.40429E-03   -0.20996E-04  2048   0.314E-02    0.147E-02
DAV:  21    -0.869915525588E+03   -0.41319E-03   -0.10988E-04  1832   0.232E-02    0.107E-02
DAV:  22    -0.869915616416E+03   -0.90828E-04   -0.66896E-05  1848   0.177E-02    0.418E-03
DAV:  23    -0.869915701897E+03   -0.85482E-04   -0.30903E-05  1760   0.118E-02    0.389E-03
DAV:  24    -0.869915753971E+03   -0.52073E-04   -0.10576E-05  1544   0.645E-03    0.226E-03
DAV:  25    -0.869915777676E+03   -0.23705E-04   -0.67408E-06  1488   0.466E-03    0.153E-03
DAV:  26    -0.869915793003E+03   -0.15327E-04   -0.54559E-06  1416   0.379E-03    0.147E-03
DAV:  27    -0.869915796031E+03   -0.30281E-05   -0.19978E-06  1488   0.218E-03
   1 F= -.86991580E+03 E0= -.86991580E+03  d E =-.869916E+03  mag=     0.0000
 BRION: g(F)=  0.487E+01 g(S)=  0.000E+00
 bond charge predicted
       N       E                     dE             d eps       ncg     rms          rms(c)
DAV:   1    -0.860819274968E+03    0.90965E+01   -0.77732E+02  1776   0.327E+01    0.813E+00
DAV:   2    -0.865781550281E+03   -0.49623E+01   -0.58478E+01  2248   0.684E+00    0.675E+00
DAV:   3    -0.865098639075E+03    0.68291E+00   -0.13678E+00  2128   0.181E+00    0.403E+00
DAV:   4    -0.864781032021E+03    0.31761E+00   -0.11745E+00  2288   0.194E+00    0.124E+00
DAV:   5    -0.864748075714E+03    0.32956E-01   -0.17438E-01  2208   0.806E-01    0.431E-01
DAV:   6    -0.864741876736E+03    0.61990E-02   -0.31648E-02  2112   0.367E-01    0.293E-01
DAV:   7    -0.864737935586E+03    0.39411E-02   -0.60828E-03  2504   0.310E-01    0.151E-01
DAV:   8    -0.864737207627E+03    0.72796E-03   -0.27106E-03  2096   0.177E-01    0.753E-02
DAV:   9    -0.864737356735E+03   -0.14911E-03   -0.16579E-03  2384   0.166E-01    0.608E-02
DAV:  10    -0.864737857975E+03   -0.50124E-03   -0.12844E-03  2064   0.117E-01    0.492E-02
DAV:  11    -0.864738137520E+03   -0.27955E-03   -0.48637E-04  2096   0.503E-02    0.314E-02
DAV:  12    -0.864738364181E+03   -0.22666E-03   -0.12614E-04  2224   0.321E-02    0.166E-02
DAV:  13    -0.864738527547E+03   -0.16337E-03   -0.50705E-05  1832   0.231E-02    0.124E-02
DAV:  14    -0.864738596578E+03   -0.69030E-04   -0.64746E-05  1992   0.174E-02    0.101E-02
DAV:  15    -0.864738630661E+03   -0.34083E-04   -0.77496E-06  1416   0.731E-03    0.770E-03
DAV:  16    -0.864738639462E+03   -0.88018E-05   -0.64560E-06  1480   0.524E-03
   2 F= -.86473864E+03 E0= -.86473864E+03  d E =0.517716E+01  mag=    -0.0000
 BRION: g(F)=  0.251E+03 g(S)=  0.000E+00 retain N=  1 mean eig= 0.09
 eig:   0.087
 bond charge predicted
       N       E                     dE             d eps       ncg     rms          rms(c)
DAV:   1    -0.870212539776E+03   -0.54739E+01   -0.35765E+02  1728   0.169E+01    0.744E+00
DAV:   2    -0.871282188928E+03   -0.10696E+01   -0.18110E+01  2176   0.388E+00    0.441E+00
DAV:   3    -0.870941083940E+03    0.34110E+00   -0.65358E-01  2240   0.162E+00    0.265E+00
DAV:   4    -0.870834932723E+03    0.10615E+00   -0.37029E-01  2176   0.101E+00    0.935E-01
DAV:   5    -0.870819970995E+03    0.14962E-01   -0.97777E-02  2096   0.524E-01    0.383E-01
DAV:   6    -0.870818050418E+03    0.19206E-02   -0.14374E-02  2192   0.229E-01    0.229E-01
DAV:   7    -0.870816891590E+03    0.11588E-02   -0.34762E-03  1952   0.135E-01    0.823E-02
DAV:   8    -0.870816510589E+03    0.38100E-03   -0.66420E-04  2296   0.105E-01    0.544E-02
DAV:   9    -0.870816287039E+03    0.22355E-03   -0.66584E-04  2368   0.108E-01    0.314E-02
DAV:  10    -0.870816249194E+03    0.37845E-04   -0.37003E-04  2120   0.537E-02    0.230E-02
DAV:  11    -0.870816234986E+03    0.14208E-04   -0.68358E-05  2064   0.191E-02    0.998E-03
DAV:  12    -0.870816237821E+03   -0.28353E-05   -0.11659E-05  1456   0.232E-02
   3 F= -.87081624E+03 E0= -.87081624E+03  d E =-.607760E+01  mag=     0.0000
 BRION: g(F)=  0.301E+01 g(S)=  0.000E+00 retain N=  1 mean eig= 0.08
 eig:   0.079
 bond charge predicted
       N       E                     dE             d eps       ncg     rms          rms(c)
DAV:   1    -0.867000040728E+03    0.38162E+01   -0.37353E+02  1728   0.274E+01    0.536E+00
DAV:   2    -0.868025557291E+03   -0.10255E+01   -0.16646E+01  2040   0.459E+00    0.367E+00
DAV:   3    -0.867760393207E+03    0.26516E+00   -0.74864E-01  2128   0.145E+00    0.176E+00
DAV:   4    -0.867678131147E+03    0.82262E-01   -0.16188E-01  2152   0.857E-01    0.871E-01
DAV:   5    -0.867653459435E+03    0.24672E-01   -0.56867E-02  2224   0.590E-01    0.352E-01
DAV:   6    -0.867647008787E+03    0.64506E-02   -0.25259E-02  2360   0.409E-01    0.210E-01
DAV:   7    -0.867643287351E+03    0.37214E-02   -0.35407E-03  2400   0.239E-01    0.147E-01
DAV:   8    -0.867641110077E+03    0.21773E-02   -0.23685E-03  2472   0.250E-01    0.711E-02
DAV:   9    -0.867640980316E+03    0.12976E-03   -0.28630E-03  2224   0.174E-01    0.628E-02
DAV:  10    -0.867641126130E+03   -0.14581E-03   -0.12514E-03  2136   0.880E-02    0.412E-02
DAV:  11    -0.867641202836E+03   -0.76705E-04   -0.24971E-04  2056   0.297E-02    0.223E-02
DAV:  12    -0.867641363466E+03   -0.16063E-03   -0.70107E-05  2112   0.337E-02    0.122E-02
DAV:  13    -0.867641405596E+03   -0.42130E-04   -0.32715E-05  1872   0.136E-02    0.803E-03
DAV:  14    -0.867641456407E+03   -0.50811E-04   -0.16811E-05  1360   0.112E-02    0.434E-03
DAV:  15    -0.867641478229E+03   -0.21822E-04   -0.65361E-06  1408   0.555E-03    0.403E-03
DAV:  16    -0.867641487658E+03   -0.94291E-05   -0.19654E-06  1440   0.363E-03
   4 F= -.86764149E+03 E0= -.86764149E+03  d E =0.317475E+01  mag=    -0.0000
 BRION: g(F)=  0.959E+02 g(S)=  0.000E+00 retain N=  2 mean eig= 0.06
 eig:   0.114  0.001
 bond charge predicted
       N       E                     dE             d eps       ncg     rms          rms(c)
DAV:   1    -0.869992558064E+03   -0.23511E+01   -0.27696E+02  1792   0.173E+01    0.608E+00
DAV:   2    -0.871194157345E+03   -0.12016E+01   -0.17739E+01  2240   0.409E+00    0.363E+00
DAV:   3    -0.870948983795E+03    0.24517E+00   -0.53810E-01  2160   0.125E+00    0.207E+00
DAV:   4    -0.870885233614E+03    0.63750E-01   -0.30085E-01  2144   0.754E-01    0.854E-01
DAV:   5    -0.870871234684E+03    0.13999E-01   -0.53723E-02  2176   0.461E-01    0.369E-01
DAV:   6    -0.870870262338E+03    0.97235E-03   -0.14133E-02  2032   0.213E-01    0.191E-01
DAV:   7    -0.870869989731E+03    0.27261E-03   -0.21751E-03  2328   0.115E-01    0.907E-02
DAV:   8    -0.870870467954E+03   -0.47822E-03   -0.10008E-03  2224   0.119E-01    0.470E-02
DAV:   9    -0.870870979710E+03   -0.51176E-03   -0.57246E-04  2264   0.928E-02    0.285E-02
DAV:  10    -0.870871442448E+03   -0.46274E-03   -0.46052E-04  2032   0.666E-02    0.261E-02
DAV:  11    -0.870871642522E+03   -0.20007E-03   -0.14860E-04  2304   0.345E-02    0.127E-02
DAV:  12    -0.870871707209E+03   -0.64687E-04   -0.57023E-05  1888   0.181E-02    0.112E-02
DAV:  13    -0.870871730088E+03   -0.22879E-04   -0.15700E-05  1488   0.121E-02    0.441E-03
DAV:  14    -0.870871740956E+03   -0.10868E-04   -0.93005E-06  1416   0.631E-03    0.368E-03
DAV:  15    -0.870871744181E+03   -0.32249E-05   -0.18230E-06  1456   0.353E-03
   5 F= -.87087174E+03 E0= -.87087174E+03  d E =-.323026E+01  mag=    -0.0000
 BRION: g(F)=  0.348E+01 g(S)=  0.000E+00 retain N=  1 mean eig= 0.11
 eig:   0.109
 bond charge predicted
       N       E                     dE             d eps       ncg     rms          rms(c)
DAV:   1    -0.866573016390E+03    0.42987E+01   -0.54052E+02  1728   0.365E+01    0.555E+00
DAV:   2    -0.867639059431E+03   -0.10660E+01   -0.20536E+01  2144   0.658E+00    0.384E+00
DAV:   3    -0.867185638319E+03    0.45342E+00   -0.90537E-01  2224   0.219E+00    0.207E+00
DAV:   4    -0.866959082777E+03    0.22656E+00   -0.30517E-01  2480   0.182E+00    0.873E-01
DAV:   5    -0.866893908392E+03    0.65174E-01   -0.17169E-01  2336   0.127E+00    0.452E-01
DAV:   6    -0.866867027780E+03    0.26881E-01   -0.82840E-02  2272   0.888E-01    0.392E-01
DAV:   7    -0.866854735782E+03    0.12292E-01   -0.17802E-02  2400   0.579E-01    0.263E-01
DAV:   8    -0.866852531695E+03    0.22041E-02   -0.12854E-02  2112   0.389E-01    0.882E-02
DAV:   9    -0.866853789625E+03   -0.12579E-02   -0.67096E-03  2088   0.185E-01    0.946E-02
DAV:  10    -0.866854173564E+03   -0.38394E-03   -0.91886E-04  2080   0.643E-02    0.470E-02
DAV:  11    -0.866855028954E+03   -0.85539E-03   -0.42902E-04  2080   0.594E-02    0.287E-02
DAV:  12    -0.866855262243E+03   -0.23329E-03   -0.14543E-04  2080   0.271E-02    0.235E-02
DAV:  13    -0.866855515852E+03   -0.25361E-03   -0.10610E-04  2016   0.294E-02    0.112E-02
DAV:  14    -0.866855607748E+03   -0.91896E-04   -0.46765E-05  1984   0.147E-02    0.111E-02
DAV:  15    -0.866855652475E+03   -0.44727E-04   -0.84486E-06  1360   0.666E-03    0.652E-03
DAV:  16    -0.866855678532E+03   -0.26057E-04   -0.15766E-05  1456   0.734E-03    0.495E-03
DAV:  17    -0.866855682073E+03   -0.35404E-05   -0.50811E-06  1488   0.527E-03
   6 F= -.86685568E+03 E0= -.86685568E+03  d E =0.401606E+01  mag=    -0.0000
 BRION: g(F)=  0.751E+02 g(S)=  0.000E+00 retain N=  2 mean eig= 0.12
 eig:   0.124  0.124
 bond charge predicted
       N       E                     dE             d eps       ncg     rms          rms(c)
DAV:   1    -0.870061228654E+03   -0.32056E+01   -0.33954E+02  1744   0.246E+01    0.556E+00
DAV:   2    -0.871251007540E+03   -0.11898E+01   -0.18059E+01  2176   0.536E+00    0.339E+00
DAV:   3    -0.870974555883E+03    0.27645E+00   -0.55621E-01  2192   0.158E+00    0.201E+00
DAV:   4    -0.870837735900E+03    0.13682E+00   -0.30472E-01  2192   0.135E+00    0.698E-01
DAV:   5    -0.870817880789E+03    0.19855E-01   -0.12421E-01  2160   0.850E-01    0.378E-01
DAV:   6    -0.870810761577E+03    0.71192E-02   -0.26196E-02  2160   0.393E-01    0.266E-01
DAV:   7    -0.870804874485E+03    0.58871E-02   -0.54115E-03  2064   0.231E-01    0.114E-01
DAV:   8    -0.870801160028E+03    0.37145E-02   -0.31184E-03  2448   0.332E-01    0.974E-02
DAV:   9    -0.870800955777E+03    0.20425E-03   -0.49311E-03  2224   0.256E-01    0.647E-02
DAV:  10    -0.870801498634E+03   -0.54286E-03   -0.31281E-03  2064   0.119E-01    0.795E-02
DAV:  11    -0.870801476979E+03    0.21656E-04   -0.30481E-04  2112   0.346E-02    0.473E-02
DAV:  12    -0.870801740084E+03   -0.26311E-03   -0.51565E-04  2256   0.561E-02    0.329E-02
DAV:  13    -0.870801824294E+03   -0.84210E-04   -0.57428E-05  2056   0.213E-02    0.303E-02
DAV:  14    -0.870801869250E+03   -0.44955E-04   -0.13340E-04  2224   0.282E-02    0.103E-02
DAV:  15    -0.870801908102E+03   -0.38852E-04   -0.22983E-05  1600   0.102E-02    0.797E-03
DAV:  16    -0.870801935180E+03   -0.27078E-04   -0.90722E-06  1440   0.629E-03    0.623E-03
DAV:  17    -0.870801942074E+03   -0.68943E-05   -0.67838E-06  1520   0.633E-03
   7 F= -.87080194E+03 E0= -.87080194E+03  d E =-.394626E+01  mag=     0.0000
 BRION: g(F)=  0.400E+01 g(S)=  0.000E+00 retain N=  1 mean eig= 0.14
 eig:   0.140
 bond charge predicted
       N       E                     dE             d eps       ncg     rms          rms(c)
DAV:   1    -0.866510389040E+03    0.42915E+01   -0.62921E+02  1728   0.408E+01    0.533E+00
DAV:   2    -0.867728580226E+03   -0.12182E+01   -0.22413E+01  2096   0.710E+00    0.385E+00
DAV:   3    -0.867257493214E+03    0.47109E+00   -0.77120E-01  2160   0.204E+00    0.229E+00
DAV:   4    -0.866961605972E+03    0.29589E+00   -0.41045E-01  2144   0.185E+00    0.851E-01
DAV:   5    -0.866912569199E+03    0.49037E-01   -0.24652E-01  2240   0.126E+00    0.529E-01
DAV:   6    -0.866888386378E+03    0.24183E-01   -0.84162E-02  2320   0.811E-01    0.400E-01
DAV:   7    -0.866869506905E+03    0.18879E-01   -0.10835E-02  2432   0.591E-01    0.245E-01
DAV:   8    -0.866861639379E+03    0.78675E-02   -0.14566E-02  2368   0.669E-01    0.938E-02
DAV:   9    -0.866864260385E+03   -0.26210E-02   -0.19519E-02  2032   0.257E-01    0.126E-01
DAV:  10    -0.866864623463E+03   -0.36308E-03   -0.10322E-03  2048   0.586E-02    0.905E-02
DAV:  11    -0.866865319355E+03   -0.69589E-03   -0.92783E-04  2176   0.810E-02    0.392E-02
DAV:  12    -0.866865648837E+03   -0.32948E-03   -0.30356E-04  2032   0.370E-02    0.320E-02
DAV:  13    -0.866865867695E+03   -0.21886E-03   -0.14079E-04  1976   0.323E-02    0.196E-02
DAV:  14    -0.866865985445E+03   -0.11775E-03   -0.21919E-04  1992   0.306E-02    0.149E-02
DAV:  15    -0.866866017566E+03   -0.32121E-04   -0.13639E-04  1808   0.229E-02    0.719E-03
DAV:  16    -0.866866062390E+03   -0.44824E-04   -0.12742E-04  1744   0.201E-02    0.427E-03
DAV:  17    -0.866866047535E+03    0.14855E-04   -0.66235E-05  1728   0.144E-02    0.319E-03
DAV:  18    -0.866866051846E+03   -0.43107E-05   -0.12564E-05  1624   0.651E-03
   8 F= -.86686605E+03 E0= -.86686605E+03  d E =0.393589E+01  mag=     0.0000
 BRION: g(F)=  0.508E+02 g(S)=  0.000E+00 retain N=  2 mean eig= 0.18
 eig:   0.175  0.175
 bond charge predicted
       N       E                     dE             d eps       ncg     rms          rms(c)
DAV:   1    -0.871087098988E+03   -0.42211E+01   -0.38031E+02  1728   0.320E+01    0.421E+00
DAV:   2    -0.871815979324E+03   -0.72888E+00   -0.14227E+01  2096   0.576E+00    0.309E+00
DAV:   3    -0.871491293458E+03    0.32469E+00   -0.43141E-01  2160   0.162E+00    0.196E+00
DAV:   4    -0.871240830852E+03    0.25046E+00   -0.34986E-01  2336   0.191E+00    0.551E-01
DAV:   5    -0.871220350469E+03    0.20480E-01   -0.24523E-01  2176   0.114E+00    0.464E-01
DAV:   6    -0.871209558101E+03    0.10792E-01   -0.48365E-02  2128   0.454E-01    0.353E-01
DAV:   7    -0.871191448924E+03    0.18109E-01   -0.16682E-02  2448   0.632E-01    0.205E-01
DAV:   8    -0.871189351005E+03    0.20979E-02   -0.99353E-03  2304   0.346E-01    0.109E-01
DAV:   9    -0.871189734177E+03   -0.38317E-03   -0.46346E-03  2368   0.233E-01    0.948E-02
DAV:  10    -0.871190561013E+03   -0.82684E-03   -0.27107E-03  1960   0.109E-01    0.723E-02
DAV:  11    -0.871190849232E+03   -0.28822E-03   -0.41995E-04  2192   0.666E-02    0.270E-02
DAV:  12    -0.871191270259E+03   -0.42103E-03   -0.32121E-04  1968   0.399E-02    0.213E-02
DAV:  13    -0.871191350058E+03   -0.79799E-04   -0.98653E-05  2128   0.201E-02    0.144E-02
DAV:  14    -0.871191414672E+03   -0.64614E-04   -0.16398E-05  1392   0.850E-03    0.890E-03
DAV:  15    -0.871191465089E+03   -0.50418E-04   -0.15424E-05  1504   0.867E-03    0.679E-03
DAV:  16    -0.871191477473E+03   -0.12384E-04   -0.14936E-05  1568   0.868E-03    0.290E-03
DAV:  17    -0.871191480368E+03   -0.28944E-05   -0.12161E-05  1496   0.628E-03
   9 F= -.87119148E+03 E0= -.87119148E+03  d E =-.432543E+01  mag=     0.0000
 BRION: g(F)=  0.245E+01 g(S)=  0.000E+00 retain N=  1 mean eig= 0.18
 eig:   0.184
 bond charge predicted
       N       E                     dE             d eps       ncg     rms          rms(c)
DAV:   1    -0.867448009376E+03    0.37435E+01   -0.28805E+02  1728   0.232E+01    0.413E+00
DAV:   2    -0.868855570509E+03   -0.14076E+01   -0.16769E+01  2112   0.427E+00    0.289E+00
DAV:   3    -0.868704411898E+03    0.15116E+00   -0.31780E-01  2112   0.994E-01    0.185E+00
DAV:   4    -0.868614998367E+03    0.89414E-01   -0.16741E-01  2240   0.968E-01    0.676E-01
DAV:   5    -0.868601228534E+03    0.13770E-01   -0.55631E-02  2224   0.558E-01    0.366E-01
DAV:   6    -0.868598848356E+03    0.23802E-02   -0.13951E-02  2256   0.288E-01    0.203E-01
DAV:   7    -0.868598014918E+03    0.83344E-03   -0.27137E-03  2048   0.127E-01    0.123E-01
DAV:   8    -0.868598236869E+03   -0.22195E-03   -0.13813E-03  2288   0.169E-01    0.501E-02
DAV:   9    -0.868598929453E+03   -0.69258E-03   -0.14030E-03  2096   0.112E-01    0.367E-02
DAV:  10    -0.868599461359E+03   -0.53191E-03   -0.61244E-04  2240   0.673E-02    0.307E-02
DAV:  11    -0.868599705100E+03   -0.24374E-03   -0.16863E-04  2080   0.259E-02    0.183E-02
DAV:  12    -0.868599979261E+03   -0.27416E-03   -0.69462E-05  2000   0.333E-02    0.130E-02
DAV:  13    -0.868600026043E+03   -0.46782E-04   -0.45474E-05  2000   0.140E-02    0.757E-03
DAV:  14    -0.868600062267E+03   -0.36224E-04   -0.16190E-05  1376   0.987E-03    0.592E-03
DAV:  15    -0.868600078632E+03   -0.16365E-04   -0.59960E-06  1408   0.546E-03    0.543E-03
DAV:  16    -0.868600082915E+03   -0.42827E-05   -0.27330E-06  1472   0.529E-03
  10 F= -.86860008E+03 E0= -.86860008E+03  d E =0.259140E+01  mag=     0.0000
 BRION: g(F)=  0.360E+02 g(S)=  0.000E+00 retain N=  2 mean eig= 0.15
 eig:   0.151  0.151
 bond charge predicted
       N       E                     dE             d eps       ncg     rms          rms(c)
DAV:   1    -0.870453688832E+03   -0.18536E+01   -0.16677E+02  1728   0.172E+01    0.385E+00
DAV:   2    -0.871078846966E+03   -0.62516E+00   -0.87784E+00  2112   0.336E+00    0.232E+00
DAV:   3    -0.870964369206E+03    0.11448E+00   -0.23125E-01  2176   0.105E+00    0.148E+00
DAV:   4    -0.870909696230E+03    0.54673E-01   -0.10501E-01  2224   0.845E-01    0.578E-01
DAV:   5    -0.870896987697E+03    0.12709E-01   -0.49605E-02  2096   0.557E-01    0.242E-01
DAV:   6    -0.870894456722E+03    0.25310E-02   -0.13712E-02  2416   0.297E-01    0.177E-01
DAV:   7    -0.870892720599E+03    0.17361E-02   -0.17439E-03  2160   0.123E-01    0.869E-02
DAV:   8    -0.870891342240E+03    0.13784E-02   -0.97189E-04  2336   0.188E-01    0.453E-02
DAV:   9    -0.870891271419E+03    0.70821E-04   -0.13214E-03  2128   0.126E-01    0.390E-02
DAV:  10    -0.870891452791E+03   -0.18137E-03   -0.82513E-04  2224   0.783E-02    0.319E-02
DAV:  11    -0.870891506462E+03   -0.53672E-04   -0.14099E-04  2080   0.224E-02    0.179E-02
DAV:  12    -0.870891625687E+03   -0.11922E-03   -0.96164E-05  2128   0.257E-02    0.170E-02
DAV:  13    -0.870891643592E+03   -0.17905E-04   -0.18689E-05  1616   0.107E-02    0.936E-03
DAV:  14    -0.870891671370E+03   -0.27778E-04   -0.36811E-05  1840   0.139E-02    0.916E-03
DAV:  15    -0.870891682649E+03   -0.11279E-04   -0.55964E-06  1408   0.544E-03    0.584E-03
DAV:  16    -0.870891688428E+03   -0.57796E-05   -0.37569E-06  1376   0.422E-03
  11 F= -.87089169E+03 E0= -.87089169E+03  d E =-.229161E+01  mag=     0.0000
 BRION: g(F)=  0.319E+01 g(S)=  0.000E+00 retain N=  1 mean eig= 0.14
 eig:   0.142
 bond charge predicted
       N       E                     dE             d eps       ncg     rms          rms(c)
DAV:   1    -0.865040990226E+03    0.58507E+01   -0.49180E+02  1744   0.280E+01    0.674E+00
DAV:   2    -0.866702174488E+03   -0.16612E+01   -0.25795E+01  2016   0.480E+00    0.447E+00
DAV:   3    -0.866320412239E+03    0.38176E+00   -0.11624E+00  2144   0.160E+00    0.184E+00
DAV:   4    -0.866242231065E+03    0.78181E-01   -0.21520E-01  2384   0.885E-01    0.805E-01
DAV:   5    -0.866225465484E+03    0.16766E-01   -0.60688E-02  2304   0.461E-01    0.341E-01
DAV:   6    -0.866220658737E+03    0.48067E-02   -0.16585E-02  2128   0.279E-01    0.162E-01
DAV:   7    -0.866218281747E+03    0.23770E-02   -0.22035E-03  2400   0.193E-01    0.954E-02
DAV:   8    -0.866217472441E+03    0.80931E-03   -0.17370E-03  2128   0.144E-01    0.520E-02
DAV:   9    -0.866217450043E+03    0.22398E-04   -0.12408E-03  2064   0.919E-02    0.416E-02
DAV:  10    -0.866217458685E+03   -0.86424E-05   -0.17645E-04  2096   0.441E-02    0.199E-02
DAV:  11    -0.866217516983E+03   -0.58298E-04   -0.80138E-05  1888   0.323E-02    0.134E-02
DAV:  12    -0.866217565100E+03   -0.48117E-04   -0.64270E-05  1936   0.206E-02    0.684E-03
DAV:  13    -0.866217588307E+03   -0.23207E-04   -0.18089E-05  1520   0.115E-02    0.603E-03
DAV:  14    -0.866217598211E+03   -0.99041E-05   -0.56069E-06  1424   0.499E-03
  12 F= -.86621760E+03 E0= -.86621760E+03  d E =0.467409E+01  mag=     0.0000
 BRION: g(F)=  0.183E+03 g(S)=  0.000E+00 retain N=  2 mean eig= 0.13
 eig:   0.208  0.052
 bond charge predicted
       N       E                     dE             d eps       ncg     rms          rms(c)
DAV:   1    -0.869383052088E+03   -0.31655E+01   -0.40103E+02  1824   0.182E+01    0.777E+00
DAV:   2    -0.871363703056E+03   -0.19807E+01   -0.28685E+01  2128   0.449E+00    0.478E+00
DAV:   3    -0.870936490660E+03    0.42721E+00   -0.86317E-01  2144   0.158E+00    0.263E+00
DAV:   4    -0.870829415884E+03    0.10707E+00   -0.51159E-01  2096   0.884E-01    0.976E-01
DAV:   5    -0.870813275962E+03    0.16140E-01   -0.81417E-02  2144   0.475E-01    0.414E-01
DAV:   6    -0.870812055013E+03    0.12209E-02   -0.15447E-02  2080   0.219E-01    0.215E-01
DAV:   7    -0.870812620339E+03   -0.56533E-03   -0.39601E-03  2048   0.155E-01    0.849E-02
DAV:   8    -0.870813606597E+03   -0.98626E-03   -0.10777E-03  2128   0.102E-01    0.641E-02
DAV:   9    -0.870814604416E+03   -0.99782E-03   -0.97663E-04  2032   0.975E-02    0.371E-02
DAV:  10    -0.870815127098E+03   -0.52268E-03   -0.37723E-04  2376   0.661E-02    0.290E-02
DAV:  11    -0.870815324784E+03   -0.19769E-03   -0.16894E-04  2032   0.336E-02    0.132E-02
DAV:  12    -0.870815391076E+03   -0.66292E-04   -0.58981E-05  1872   0.199E-02    0.104E-02
DAV:  13    -0.870815419674E+03   -0.28598E-04   -0.49174E-05  1728   0.165E-02    0.533E-03
DAV:  14    -0.870815422817E+03   -0.31426E-05   -0.59957E-05  1600   0.144E-02
  13 F= -.87081542E+03 E0= -.87081542E+03  d E =-.459782E+01  mag=     0.0000
 BRION: g(F)=  0.447E+01 g(S)=  0.000E+00 retain N=  1 mean eig= 0.09
 eig:   0.091
 bond charge predicted
       N       E                     dE             d eps       ncg     rms          rms(c)
DAV:   1    -0.867964563717E+03    0.28509E+01   -0.43239E+02  1728   0.344E+01    0.411E+00
DAV:   2    -0.868727547234E+03   -0.76298E+00   -0.14554E+01  2160   0.606E+00    0.316E+00
DAV:   3    -0.868416943471E+03    0.31060E+00   -0.49325E-01  2160   0.161E+00    0.200E+00
DAV:   4    -0.868206984765E+03    0.20996E+00   -0.34337E-01  2128   0.148E+00    0.646E-01
DAV:   5    -0.868186036272E+03    0.20948E-01   -0.16376E-01  2256   0.949E-01    0.397E-01
DAV:   6    -0.868176576208E+03    0.94601E-02   -0.59142E-02  2128   0.613E-01    0.344E-01
DAV:   7    -0.868169331687E+03    0.72445E-02   -0.89268E-03  2208   0.312E-01    0.210E-01
DAV:   8    -0.868165371687E+03    0.39600E-02   -0.59242E-03  2368   0.326E-01    0.869E-02
DAV:   9    -0.868165692595E+03   -0.32091E-03   -0.44568E-03  2112   0.173E-01    0.108E-01
DAV:  10    -0.868166070148E+03   -0.37755E-03   -0.20305E-03  1968   0.878E-02    0.461E-02
DAV:  11    -0.868166730706E+03   -0.66056E-03   -0.88210E-04  2032   0.637E-02    0.463E-02
DAV:  12    -0.868166922485E+03   -0.19178E-03   -0.12893E-04  2056   0.329E-02    0.435E-02
DAV:  13    -0.868167093944E+03   -0.17146E-03   -0.26557E-04  1992   0.392E-02    0.170E-02
DAV:  14    -0.868167181445E+03   -0.87501E-04   -0.14247E-04  1984   0.246E-02    0.104E-02
DAV:  15    -0.868167236765E+03   -0.55320E-04   -0.98261E-05  1832   0.189E-02    0.812E-03
DAV:  16    -0.868167253946E+03   -0.17181E-04   -0.93575E-05  1744   0.174E-02    0.624E-03
DAV:  17    -0.868167243616E+03    0.10330E-04   -0.45026E-05  1696   0.118E-02    0.311E-03
DAV:  18    -0.868167242667E+03    0.94868E-06   -0.83676E-06  1568   0.530E-03
  14 F= -.86816724E+03 E0= -.86816724E+03  d E =0.264818E+01  mag=    -0.0000
 BRION: g(F)=  0.341E+02 g(S)=  0.000E+00 retain N=  2 mean eig= 0.15
 eig:   0.095  0.205
 bond charge predicted
       N       E                     dE             d eps       ncg     rms          rms(c)
DAV:   1    -0.871102293360E+03   -0.29350E+01   -0.26108E+02  1760   0.267E+01    0.311E+00
DAV:   2    -0.871561847281E+03   -0.45955E+00   -0.89418E+00  2144   0.460E+00    0.250E+00
DAV:   3    -0.871361967193E+03    0.19988E+00   -0.28478E-01  2160   0.123E+00    0.162E+00
DAV:   4    -0.871218363305E+03    0.14360E+00   -0.19643E-01  2144   0.122E+00    0.500E-01
DAV:   5    -0.871205428958E+03    0.12934E-01   -0.12444E-01  2272   0.823E-01    0.321E-01
DAV:   6    -0.871201099196E+03    0.43298E-02   -0.35144E-02  2160   0.422E-01    0.267E-01
DAV:   7    -0.871195597592E+03    0.55016E-02   -0.43509E-03  2272   0.306E-01    0.147E-01
DAV:   8    -0.871194647570E+03    0.95002E-03   -0.40478E-03  2144   0.278E-01    0.496E-02
DAV:   9    -0.871195542780E+03   -0.89521E-03   -0.39602E-03  2064   0.125E-01    0.648E-02
DAV:  10    -0.871195641113E+03   -0.98332E-04   -0.26336E-04  2128   0.289E-02    0.532E-02
DAV:  11    -0.871196001728E+03   -0.36062E-03   -0.44849E-04  2032   0.404E-02    0.379E-02
DAV:  12    -0.871196320538E+03   -0.31881E-03   -0.16069E-04  2112   0.340E-02    0.480E-02
DAV:  13    -0.871196339260E+03   -0.18722E-04   -0.16627E-04  2192   0.295E-02    0.214E-02
DAV:  14    -0.871196360778E+03   -0.21518E-04   -0.55953E-05  1872   0.148E-02    0.104E-02
DAV:  15    -0.871196422189E+03   -0.61412E-04   -0.31300E-05  1688   0.151E-02    0.630E-03
DAV:  16    -0.871196441504E+03   -0.19315E-04   -0.29137E-05  1696   0.108E-02    0.850E-03
DAV:  17    -0.871196444345E+03   -0.28406E-05   -0.13499E-05  1552   0.726E-03
  15 F= -.87119644E+03 E0= -.87119644E+03  d E =-.302920E+01  mag=     0.0000
 BRION: g(F)=  0.183E+01 g(S)=  0.000E+00 retain N=  1 mean eig= 0.20
 eig:   0.197
 bond charge predicted
       N       E                     dE             d eps       ncg     rms          rms(c)
DAV:   1    -0.867229850744E+03    0.39666E+01   -0.29224E+02  1728   0.248E+01    0.495E+00
DAV:   2    -0.868129721857E+03   -0.89987E+00   -0.14166E+01  2048   0.426E+00    0.348E+00
DAV:   3    -0.867907467823E+03    0.22225E+00   -0.63471E-01  2128   0.124E+00    0.165E+00
DAV:   4    -0.867844021802E+03    0.63446E-01   -0.12578E-01  2352   0.752E-01    0.993E-01
DAV:   5    -0.867821801207E+03    0.22221E-01   -0.46843E-02  2112   0.449E-01    0.380E-01
DAV:   6    -0.867817774346E+03    0.40269E-02   -0.19582E-02  2192   0.289E-01    0.182E-01
DAV:   7    -0.867815608678E+03    0.21657E-02   -0.27074E-03  2368   0.175E-01    0.110E-01
DAV:   8    -0.867814354608E+03    0.12541E-02   -0.13115E-03  2400   0.195E-01    0.713E-02
DAV:   9    -0.867814278001E+03    0.76608E-04   -0.21565E-03  2264   0.129E-01    0.560E-02
DAV:  10    -0.867814252870E+03    0.25131E-04   -0.50538E-04  2000   0.589E-02    0.314E-02
DAV:  11    -0.867814293821E+03   -0.40952E-04   -0.19875E-04  1880   0.427E-02    0.171E-02
DAV:  12    -0.867814345655E+03   -0.51833E-04   -0.16875E-04  1832   0.366E-02    0.116E-02
DAV:  13    -0.867814379952E+03   -0.34298E-04   -0.21257E-04  1840   0.276E-02    0.868E-03
DAV:  14    -0.867814387871E+03   -0.79191E-05   -0.17490E-04  1648   0.225E-02    0.504E-03
DAV:  15    -0.867814372224E+03    0.15647E-04   -0.98096E-05  1688   0.159E-02    0.325E-03
DAV:  16    -0.867814366052E+03    0.61722E-05   -0.32891E-05  1592   0.918E-03
  16 F= -.86781437E+03 E0= -.86781437E+03  d E =0.338208E+01  mag=    -0.0000
 BRION: g(F)=  0.974E+02 g(S)=  0.000E+00 retain N=  2 mean eig= 0.15
 eig:   0.191  0.116
 bond charge predicted
       N       E                     dE             d eps       ncg     rms          rms(c)
DAV:   1    -0.870426086837E+03   -0.26117E+01   -0.21801E+02  1760   0.141E+01    0.551E+00
DAV:   2    -0.871347892104E+03   -0.92181E+00   -0.13424E+01  2128   0.333E+00    0.327E+00
DAV:   3    -0.871149363311E+03    0.19853E+00   -0.38886E-01  2080   0.103E+00    0.191E+00
DAV:   4    -0.871081545283E+03    0.67818E-01   -0.24486E-01  2112   0.652E-01    0.568E-01
DAV:   5    -0.871077074184E+03    0.44711E-02   -0.39738E-02  2176   0.315E-01    0.274E-01
DAV:   6    -0.871076630979E+03    0.44320E-03   -0.57415E-03  1984   0.116E-01    0.151E-01
DAV:   7    -0.871077015005E+03   -0.38403E-03   -0.15047E-03  2320   0.114E-01    0.547E-02
DAV:   8    -0.871077503856E+03   -0.48885E-03   -0.51172E-04  2128   0.750E-02    0.388E-02
DAV:   9    -0.871078058584E+03   -0.55473E-03   -0.42301E-04  2080   0.687E-02    0.260E-02
DAV:  10    -0.871078409394E+03   -0.35081E-03   -0.16150E-04  2128   0.440E-02    0.176E-02
DAV:  11    -0.871078575505E+03   -0.16611E-03   -0.10719E-04  2048   0.247E-02    0.104E-02
DAV:  12    -0.871078641783E+03   -0.66277E-04   -0.15972E-05  1584   0.151E-02    0.815E-03
DAV:  13    -0.871078663108E+03   -0.21325E-04   -0.19769E-05  1664   0.111E-02    0.389E-03
DAV:  14    -0.871078668256E+03   -0.51480E-05   -0.82727E-06  1472   0.744E-03
  17 F= -.87107867E+03 E0= -.87107867E+03  d E =-.326430E+01  mag=     0.0000
 BRION: g(F)=  0.329E+01 g(S)=  0.000E+00 retain N=  1 mean eig= 0.10
 eig:   0.097
 bond charge predicted
       N       E                     dE             d eps       ncg     rms          rms(c)
DAV:   1    -0.868905818833E+03    0.21728E+01   -0.34073E+02  1728   0.309E+01    0.356E+00
DAV:   2    -0.869540758494E+03   -0.63494E+00   -0.11504E+01  2128   0.534E+00    0.273E+00
DAV:   3    -0.869314415272E+03    0.22634E+00   -0.34696E-01  2160   0.133E+00    0.178E+00
DAV:   4    -0.869151163806E+03    0.16325E+00   -0.27038E-01  2272   0.146E+00    0.580E-01
DAV:   5    -0.869138452729E+03    0.12711E-01   -0.14121E-01  2208   0.846E-01    0.399E-01
DAV:   6    -0.869130819897E+03    0.76328E-02   -0.39757E-02  2192   0.473E-01    0.267E-01
DAV:   7    -0.869122719083E+03    0.81008E-02   -0.38976E-03  2528   0.390E-01    0.183E-01
DAV:   8    -0.869119851620E+03    0.28675E-02   -0.55353E-03  2336   0.330E-01    0.856E-02
DAV:   9    -0.869119584084E+03    0.26754E-03   -0.35492E-03  2352   0.238E-01    0.688E-02
DAV:  10    -0.869120159635E+03   -0.57555E-03   -0.23499E-03  1984   0.956E-02    0.494E-02
DAV:  11    -0.869120466476E+03   -0.30684E-03   -0.27383E-04  2320   0.580E-02    0.198E-02
DAV:  12    -0.869120653289E+03   -0.18681E-03   -0.69094E-05  1872   0.330E-02    0.168E-02
DAV:  13    -0.869120775951E+03   -0.12266E-03   -0.12270E-04  2032   0.287E-02    0.109E-02
DAV:  14    -0.869120823423E+03   -0.47472E-04   -0.28108E-05  1728   0.123E-02    0.804E-03
DAV:  15    -0.869120842665E+03   -0.19242E-04   -0.91646E-06  1392   0.590E-03    0.561E-03
DAV:  16    -0.869120855098E+03   -0.12433E-04   -0.48969E-06  1376   0.495E-03    0.370E-03
DAV:  17    -0.869120858328E+03   -0.32301E-05   -0.32030E-06  1440   0.433E-03
  18 F= -.86912086E+03 E0= -.86912086E+03  d E =0.195781E+01  mag=    -0.0000
 BRION: g(F)=  0.186E+02 g(S)=  0.000E+00 retain N=  2 mean eig= 0.16
 eig:   0.127  0.192
 bond charge predicted
       N       E                     dE             d eps       ncg     rms          rms(c)
DAV:   1    -0.871286298449E+03   -0.21654E+01   -0.20395E+02  1728   0.239E+01    0.275E+00
DAV:   2    -0.871614985413E+03   -0.32869E+00   -0.65747E+00  2112   0.411E+00    0.205E+00
DAV:   3    -0.871471616366E+03    0.14337E+00   -0.21807E-01  2160   0.111E+00    0.133E+00
DAV:   4    -0.871371545083E+03    0.10007E+00   -0.14485E-01  2192   0.113E+00    0.448E-01
DAV:   5    -0.871360623690E+03    0.10921E-01   -0.89063E-02  2208   0.732E-01    0.306E-01
DAV:   6    -0.871355797168E+03    0.48265E-02   -0.28992E-02  2240   0.415E-01    0.229E-01
DAV:   7    -0.871349042175E+03    0.67550E-02   -0.33279E-03  2512   0.404E-01    0.149E-01
DAV:   8    -0.871347735298E+03    0.13069E-02   -0.48851E-03  2224   0.261E-01    0.729E-02
DAV:   9    -0.871347884190E+03   -0.14889E-03   -0.23143E-03  2272   0.198E-01    0.536E-02
DAV:  10    -0.871348210088E+03   -0.32590E-03   -0.18246E-03  2096   0.862E-02    0.476E-02
DAV:  11    -0.871348348095E+03   -0.13801E-03   -0.15501E-04  2272   0.410E-02    0.252E-02
DAV:  12    -0.871348509406E+03   -0.16131E-03   -0.72907E-05  2032   0.259E-02    0.156E-02
DAV:  13    -0.871348563261E+03   -0.53855E-04   -0.54919E-05  1968   0.171E-02    0.851E-03
DAV:  14    -0.871348602551E+03   -0.39289E-04   -0.13143E-05  1328   0.118E-02    0.549E-03
DAV:  15    -0.871348620898E+03   -0.18347E-04   -0.86017E-06  1376   0.674E-03    0.453E-03
DAV:  16    -0.871348627450E+03   -0.65523E-05   -0.29212E-06  1424   0.420E-03
  19 F= -.87134863E+03 E0= -.87134863E+03  d E =-.222777E+01  mag=     0.0000
 BRION: g(F)=  0.836E+00 g(S)=  0.000E+00 retain N=  1 mean eig= 0.23
 eig:   0.229
 bond charge predicted
       N       E                     dE             d eps       ncg     rms          rms(c)
DAV:   1    -0.870211882006E+03    0.11367E+01   -0.12071E+02  1728   0.174E+01    0.263E+00
DAV:   2    -0.870499523113E+03   -0.28764E+00   -0.46499E+00  2080   0.306E+00    0.194E+00
DAV:   3    -0.870417644636E+03    0.81878E-01   -0.15866E-01  2144   0.816E-01    0.113E+00
DAV:   4    -0.870376278439E+03    0.41366E-01   -0.73366E-02  2160   0.685E-01    0.528E-01
DAV:   5    -0.870368870244E+03    0.74082E-02   -0.33587E-02  2240   0.440E-01    0.274E-01
DAV:   6    -0.870366748768E+03    0.21215E-02   -0.15033E-02  2128   0.270E-01    0.146E-01
DAV:   7    -0.870365378075E+03    0.13707E-02   -0.10508E-03  2288   0.139E-01    0.101E-01
DAV:   8    -0.870364288223E+03    0.10899E-02   -0.86146E-04  2400   0.182E-01    0.365E-02
DAV:   9    -0.870364196508E+03    0.91715E-04   -0.13517E-03  2288   0.122E-01    0.385E-02
DAV:  10    -0.870364253052E+03   -0.56544E-04   -0.60811E-04  2064   0.496E-02    0.317E-02
DAV:  11    -0.870364253993E+03   -0.94145E-06   -0.54058E-05  2064   0.162E-02
  20 F= -.87036425E+03 E0= -.87036425E+03  d E =0.984373E+00  mag=     0.0000
 BRION: g(F)=  0.155E+02 g(S)=  0.000E+00 retain N=  2 mean eig= 0.19
 eig:   0.192  0.192
 bond charge predicted
       N       E                     dE             d eps       ncg     rms          rms(c)
DAV:   1    -0.871081586207E+03   -0.71733E+00   -0.83444E+01  1744   0.119E+01    0.248E+00
DAV:   2    -0.871396418396E+03   -0.31483E+00   -0.41897E+00  2096   0.232E+00    0.166E+00
DAV:   3    -0.871341663358E+03    0.54755E-01   -0.10435E-01  2144   0.575E-01    0.104E+00
DAV:   4    -0.871309932198E+03    0.31731E-01   -0.70231E-02  2112   0.559E-01    0.264E-01
DAV:   5    -0.871309398356E+03    0.53384E-03   -0.22961E-02  2160   0.303E-01    0.177E-01
DAV:   6    -0.871309012997E+03    0.38536E-03   -0.32154E-03  2032   0.102E-01    0.113E-01
DAV:   7    -0.871308763544E+03    0.24945E-03   -0.56348E-04  2048   0.765E-02    0.522E-02
DAV:   8    -0.871308879991E+03   -0.11645E-03   -0.36278E-04  2256   0.893E-02    0.318E-02
DAV:   9    -0.871309029641E+03   -0.14965E-03   -0.31589E-04  2176   0.736E-02    0.265E-02
DAV:  10    -0.871309204042E+03   -0.17440E-03   -0.36581E-04  2096   0.522E-02    0.289E-02
DAV:  11    -0.871309236368E+03   -0.32326E-04   -0.14641E-04  2096   0.258E-02    0.129E-02
DAV:  12    -0.871309275792E+03   -0.39424E-04   -0.23383E-05  1608   0.155E-02    0.722E-03
DAV:  13    -0.871309290587E+03   -0.14795E-04   -0.14110E-05  1560   0.131E-02    0.454E-03
DAV:  14    -0.871309296644E+03   -0.60578E-05   -0.20718E-05  1600   0.935E-03
  21 F= -.87130930E+03 E0= -.87130930E+03  d E =-.945043E+00  mag=    -0.0000
 BRION: g(F)=  0.169E+01 g(S)=  0.000E+00 retain N=  1 mean eig= 0.14
 eig:   0.142
 bond charge predicted
       N       E                     dE             d eps       ncg     rms          rms(c)
DAV:   1    -0.870014059096E+03    0.12952E+01   -0.14805E+02  1728   0.198E+01    0.260E+00
DAV:   2    -0.870422888293E+03   -0.40883E+00   -0.60562E+00  2096   0.361E+00    0.199E+00
DAV:   3    -0.870331432412E+03    0.91456E-01   -0.17147E-01  2160   0.879E-01    0.130E+00
DAV:   4    -0.870263789565E+03    0.67643E-01   -0.11454E-01  2144   0.890E-01    0.443E-01
DAV:   5    -0.870258218146E+03    0.55714E-02   -0.57844E-02  2192   0.561E-01    0.282E-01
DAV:   6    -0.870256251194E+03    0.19670E-02   -0.18832E-02  2112   0.288E-01    0.180E-01
DAV:   7    -0.870253579617E+03    0.26716E-02   -0.21053E-03  2240   0.204E-01    0.122E-01
DAV:   8    -0.870252800360E+03    0.77926E-03   -0.13852E-03  2192   0.122E-01    0.626E-02
DAV:   9    -0.870252160511E+03    0.63985E-03   -0.43354E-04  2432   0.172E-01    0.312E-02
DAV:  10    -0.870252223714E+03   -0.63203E-04   -0.92297E-04  2304   0.913E-02    0.335E-02
DAV:  11    -0.870252343238E+03   -0.11952E-03   -0.44313E-04  1968   0.404E-02    0.212E-02
DAV:  12    -0.870252391548E+03   -0.48310E-04   -0.38834E-05  1936   0.275E-02    0.753E-03
DAV:  13    -0.870252430973E+03   -0.39425E-04   -0.21870E-05  1584   0.127E-02    0.520E-03
DAV:  14    -0.870252462281E+03   -0.31308E-04   -0.11096E-05  1392   0.792E-03    0.366E-03
DAV:  15    -0.870252470706E+03   -0.84245E-05   -0.35666E-06  1472   0.561E-03
  22 F= -.87025247E+03 E0= -.87025247E+03  d E =0.105683E+01  mag=    -0.0000
 BRION: g(F)=  0.102E+02 g(S)=  0.000E+00 retain N=  2 mean eig= 0.19
 eig:   0.187  0.187
 bond charge predicted
       N       E                     dE             d eps       ncg     rms          rms(c)
DAV:   1    -0.871356611233E+03   -0.11041E+01   -0.98666E+01  1728   0.163E+01    0.203E+00
DAV:   2    -0.871546299300E+03   -0.18969E+00   -0.33676E+00  2096   0.286E+00    0.147E+00
DAV:   3    -0.871480141248E+03    0.66158E-01   -0.11123E-01  2160   0.787E-01    0.924E-01
DAV:   4    -0.871436176930E+03    0.43964E-01   -0.63965E-02  2240   0.791E-01    0.325E-01
DAV:   5    -0.871431597030E+03    0.45799E-02   -0.40830E-02  2176   0.496E-01    0.210E-01
DAV:   6    -0.871429632482E+03    0.19645E-02   -0.13081E-02  2096   0.257E-01    0.154E-01
DAV:   7    -0.871426622875E+03    0.30096E-02   -0.15148E-03  2368   0.248E-01    0.999E-02
DAV:   8    -0.871425925032E+03    0.69784E-03   -0.16529E-03  2256   0.153E-01    0.454E-02
DAV:   9    -0.871425711511E+03    0.21352E-03   -0.38854E-04  2288   0.150E-01    0.307E-02
DAV:  10    -0.871425874775E+03   -0.16326E-03   -0.10126E-03  2160   0.771E-02    0.292E-02
DAV:  11    -0.871425921829E+03   -0.47054E-04   -0.15297E-04  2080   0.227E-02    0.190E-02
DAV:  12    -0.871425955394E+03   -0.33565E-04   -0.38047E-05  1840   0.251E-02    0.698E-03
DAV:  13    -0.871425973821E+03   -0.18427E-04   -0.11474E-05  1424   0.848E-03    0.536E-03
DAV:  14    -0.871425982253E+03   -0.84324E-05   -0.45791E-06  1392   0.648E-03
  23 F= -.87142598E+03 E0= -.87142598E+03  d E =-.117351E+01  mag=    -0.0000
 BRION: g(F)=  0.341E+00 g(S)=  0.000E+00 retain N=  1 mean eig= 0.22
 eig:   0.218
 bond charge predicted
       N       E                     dE             d eps       ncg     rms          rms(c)
DAV:   1    -0.871032021246E+03    0.39395E+00   -0.53225E+01  1728   0.115E+01    0.169E+00
DAV:   2    -0.871147699937E+03   -0.11568E+00   -0.19091E+00  2096   0.200E+00    0.118E+00
DAV:   3    -0.871113815539E+03    0.33884E-01   -0.61858E-02  2160   0.542E-01    0.699E-01
DAV:   4    -0.871095265017E+03    0.18551E-01   -0.37032E-02  2208   0.517E-01    0.256E-01
DAV:   5    -0.871093009193E+03    0.22558E-02   -0.16915E-02  2256   0.317E-01    0.170E-01
DAV:   6    -0.871091662636E+03    0.13466E-02   -0.54556E-03  2240   0.185E-01    0.987E-02
DAV:   7    -0.871090583644E+03    0.10790E-02   -0.36618E-04  2544   0.132E-01    0.687E-02
DAV:   8    -0.871089700129E+03    0.88352E-03   -0.79085E-04  2608   0.197E-01    0.260E-02
DAV:   9    -0.871089734766E+03   -0.34637E-04   -0.12258E-03  2352   0.937E-02    0.317E-02
DAV:  10    -0.871089773954E+03   -0.39189E-04   -0.34298E-04  2000   0.336E-02    0.241E-02
DAV:  11    -0.871089777703E+03   -0.37490E-05   -0.25339E-05  1632   0.193E-02
  24 F= -.87108978E+03 E0= -.87108978E+03  d E =0.336205E+00  mag=    -0.0000
 BRION: g(F)=  0.410E+01 g(S)=  0.000E+00 retain N=  2 mean eig= 0.22
 eig:   0.216  0.216
 bond charge predicted
       N       E                     dE             d eps       ncg     rms          rms(c)
DAV:   1    -0.871384614437E+03   -0.29484E+00   -0.32628E+01  1744   0.852E+00    0.144E+00
DAV:   2    -0.871474202692E+03   -0.89588E-01   -0.13716E+00  2096   0.159E+00    0.972E-01
DAV:   3    -0.871451821201E+03    0.22381E-01   -0.43397E-02  2160   0.437E-01    0.583E-01
DAV:   4    -0.871438611797E+03    0.13209E-01   -0.23201E-02  2128   0.431E-01    0.206E-01
DAV:   5    -0.871437397354E+03    0.12144E-02   -0.12470E-02  2272   0.267E-01    0.127E-01
DAV:   6    -0.871436731425E+03    0.66593E-03   -0.28224E-03  2144   0.116E-01    0.839E-02
DAV:   7    -0.871435911541E+03    0.81988E-03   -0.30232E-04  2416   0.109E-01    0.538E-02
DAV:   8    -0.871435533517E+03    0.37802E-03   -0.39214E-04  2352   0.104E-01    0.219E-02
DAV:   9    -0.871435399887E+03    0.13363E-03   -0.26374E-04  2384   0.990E-02    0.220E-02
DAV:  10    -0.871435457744E+03   -0.57857E-04   -0.49186E-04  2064   0.457E-02    0.213E-02
DAV:  11    -0.871435461744E+03   -0.39992E-05   -0.32781E-05  1744   0.107E-02
  25 F= -.87143546E+03 E0= -.87143546E+03  d E =-.345684E+00  mag=    -0.0000
 BRION: g(F)=  0.497E+00 g(S)=  0.000E+00 retain N=  1 mean eig= 0.18
 eig:   0.176
 bond charge predicted
       N       E                     dE             d eps       ncg     rms          rms(c)
DAV:   1    -0.870905967116E+03    0.52949E+00   -0.48504E+01  1728   0.959E+00    0.156E+00
DAV:   2    -0.871107567124E+03   -0.20160E+00   -0.23608E+00  2096   0.174E+00    0.119E+00
DAV:   3    -0.871085036085E+03    0.22531E-01   -0.45733E-02  2112   0.339E-01    0.796E-01
DAV:   4    -0.871066856843E+03    0.18179E-01   -0.37872E-02  2096   0.413E-01    0.261E-01
DAV:   5    -0.871066268008E+03    0.58883E-03   -0.11873E-02  2128   0.201E-01    0.160E-01
DAV:   6    -0.871065891072E+03    0.37694E-03   -0.25414E-03  2016   0.995E-02    0.839E-02
DAV:   7    -0.871065816441E+03    0.74631E-04   -0.44490E-04  2080   0.542E-02    0.520E-02
DAV:   8    -0.871065873633E+03   -0.57193E-04   -0.16133E-04  2192   0.490E-02    0.222E-02
DAV:   9    -0.871065977019E+03   -0.10339E-03   -0.84250E-05  2144   0.553E-02    0.136E-02
DAV:  10    -0.871066072590E+03   -0.95572E-04   -0.12589E-04  2176   0.361E-02    0.100E-02
DAV:  11    -0.871066116600E+03   -0.44010E-04   -0.56892E-05  2048   0.167E-02    0.905E-03
DAV:  12    -0.871066127390E+03   -0.10790E-04   -0.45433E-06  1472   0.798E-03    0.456E-03
DAV:  13    -0.871066140220E+03   -0.12830E-04   -0.53559E-06  1344   0.607E-03    0.296E-03
DAV:  14    -0.871066141654E+03   -0.14342E-05   -0.37379E-06  1488   0.430E-03
  26 F= -.87106614E+03 E0= -.87106614E+03  d E =0.369320E+00  mag=     0.0000
 BRION: g(F)=  0.389E+01 g(S)=  0.000E+00 retain N=  2 mean eig= 0.17
 eig:   0.172  0.172
 bond charge predicted
       N       E                     dE             d eps       ncg     rms          rms(c)
DAV:   1    -0.871397736128E+03   -0.33160E+00   -0.27187E+01  1728   0.775E+00    0.119E+00
DAV:   2    -0.871490185515E+03   -0.92449E-01   -0.11952E+00  2064   0.136E+00    0.885E-01
DAV:   3    -0.871474660670E+03    0.15525E-01   -0.27716E-02  2128   0.319E-01    0.549E-01
DAV:   4    -0.871463961305E+03    0.10699E-01   -0.14031E-02  2176   0.346E-01    0.261E-01
DAV:   5    -0.871462639112E+03    0.13222E-02   -0.87430E-03  2176   0.202E-01    0.140E-01
DAV:   6    -0.871462135587E+03    0.50352E-03   -0.27684E-03  2080   0.106E-01    0.673E-02
DAV:   7    -0.871461612450E+03    0.52314E-03   -0.25441E-04  2408   0.912E-02    0.488E-02
DAV:   8    -0.871461373699E+03    0.23875E-03   -0.30993E-04  2368   0.912E-02    0.246E-02
DAV:   9    -0.871461326664E+03    0.47035E-04   -0.30183E-04  2352   0.639E-02    0.198E-02
DAV:  10    -0.871461337546E+03   -0.10882E-04   -0.15446E-04  1936   0.241E-02    0.147E-02
DAV:  11    -0.871461336411E+03    0.11353E-05   -0.18607E-05  1472   0.144E-02
  27 F= -.87146134E+03 E0= -.87146134E+03  d E =-.395195E+00  mag=     0.0000
 BRION: g(F)=  0.183E+00 g(S)=  0.000E+00 retain N=  1 mean eig= 0.19
 eig:   0.188
 bond charge predicted
       N       E                     dE             d eps       ncg     rms          rms(c)
DAV:   1    -0.871265854979E+03    0.19548E+00   -0.28823E+01  1744   0.851E+00    0.125E+00
DAV:   2    -0.871316911324E+03   -0.51056E-01   -0.98033E-01  2096   0.150E+00    0.833E-01
DAV:   3    -0.871295676854E+03    0.21234E-01   -0.37607E-02  2160   0.483E-01    0.479E-01
DAV:   4    -0.871284338519E+03    0.11338E-01   -0.18463E-02  2368   0.441E-01    0.170E-01
DAV:   5    -0.871282438225E+03    0.19003E-02   -0.11297E-02  2272   0.288E-01    0.114E-01
DAV:   6    -0.871281429670E+03    0.10086E-02   -0.39654E-03  2144   0.171E-01    0.906E-02
DAV:   7    -0.871280606910E+03    0.82276E-03   -0.44112E-04  2320   0.117E-01    0.531E-02
DAV:   8    -0.871280105602E+03    0.50131E-03   -0.61369E-04  2400   0.150E-01    0.292E-02
DAV:   9    -0.871280119885E+03   -0.14284E-04   -0.85624E-04  1976   0.652E-02    0.319E-02
DAV:  10    -0.871280122095E+03   -0.22092E-05   -0.17184E-04  2016   0.254E-02    0.202E-02
DAV:  11    -0.871280149919E+03   -0.27824E-04   -0.60968E-05  1712   0.221E-02    0.120E-02
DAV:  12    -0.871280162758E+03   -0.12840E-04   -0.88791E-05  1720   0.208E-02    0.126E-02
DAV:  13    -0.871280163809E+03   -0.10510E-05   -0.65433E-05  1560   0.150E-02
  28 F= -.87128016E+03 E0= -.87128016E+03  d E =0.181173E+00  mag=    -0.0000
 BRION: g(F)=  0.202E+01 g(S)=  0.000E+00 retain N=  2 mean eig= 0.20
 eig:   0.197  0.197
 bond charge predicted
       N       E                     dE             d eps       ncg     rms          rms(c)
DAV:   1    -0.871471310549E+03   -0.19115E+00   -0.18319E+01  1744   0.669E+00    0.100E+00
DAV:   2    -0.871505870558E+03   -0.34560E-01   -0.65451E-01  2096   0.122E+00    0.655E-01
DAV:   3    -0.871491651917E+03    0.14219E-01   -0.25899E-02  2176   0.399E-01    0.381E-01
DAV:   4    -0.871483461012E+03    0.81909E-02   -0.11205E-02  2304   0.360E-01    0.144E-01
DAV:   5    -0.871482029299E+03    0.14317E-02   -0.77545E-03  2288   0.243E-01    0.870E-02
DAV:   6    -0.871481394454E+03    0.63485E-03   -0.25717E-03  2208   0.136E-01    0.742E-02
DAV:   7    -0.871480684986E+03    0.70947E-03   -0.28077E-04  2496   0.113E-01    0.457E-02
DAV:   8    -0.871480425689E+03    0.25930E-03   -0.40317E-04  2288   0.981E-02    0.210E-02
DAV:   9    -0.871480417603E+03    0.80862E-05   -0.32281E-04  2288   0.658E-02    0.199E-02
DAV:  10    -0.871480450739E+03   -0.33136E-04   -0.23885E-04  2016   0.275E-02    0.151E-02
DAV:  11    -0.871480455697E+03   -0.49583E-05   -0.14482E-05  1424   0.114E-02
  29 F= -.87148046E+03 E0= -.87148046E+03  d E =-.200292E+00  mag=     0.0000
 BRION: g(F)=  0.809E-01 g(S)=  0.000E+00 retain N=  1 mean eig= 0.20
 eig:   0.198
 bond charge predicted
       N       E                     dE             d eps       ncg     rms          rms(c)
DAV:   1    -0.871384136754E+03    0.96314E-01   -0.67534E+00  1728   0.379E+00    0.659E-01
DAV:   2    -0.871414507252E+03   -0.30370E-01   -0.36836E-01  2080   0.736E-01    0.554E-01
DAV:   3    -0.871410580351E+03    0.39269E-02   -0.81049E-03  2128   0.147E-01    0.361E-01
DAV:   4    -0.871407775376E+03    0.28050E-02   -0.47460E-03  2144   0.171E-01    0.203E-01
DAV:   5    -0.871407103497E+03    0.67188E-03   -0.21941E-03  2144   0.955E-02    0.943E-02
DAV:   6    -0.871407003583E+03    0.99914E-04   -0.10380E-03  2096   0.579E-02    0.385E-02
DAV:   7    -0.871406970044E+03    0.33539E-04   -0.12026E-04  2144   0.270E-02    0.225E-02
DAV:   8    -0.871406959269E+03    0.10775E-04   -0.27386E-05  1616   0.231E-02    0.121E-02
DAV:   9    -0.871406961959E+03   -0.26891E-05   -0.23456E-05  1568   0.235E-02
  30 F= -.87140696E+03 E0= -.87140696E+03  d E =0.734937E-01  mag=    -0.0000
 BRION: g(F)=  0.933E+00 g(S)=  0.000E+00 retain N=  2 mean eig= 0.18
 eig:   0.179  0.179
 bond charge predicted
       N       E                     dE             d eps       ncg     rms          rms(c)
DAV:   1    -0.871470286537E+03   -0.63327E-01   -0.58943E+00  1728   0.306E+00    0.627E-01
DAV:   2    -0.871491894348E+03   -0.21608E-01   -0.26608E-01  2064   0.535E-01    0.418E-01
DAV:   3    -0.871489010157E+03    0.28842E-02   -0.66211E-03  2128   0.120E-01    0.244E-01
DAV:   4    -0.871487496336E+03    0.15138E-02   -0.28436E-03  2176   0.121E-01    0.920E-02
DAV:   5    -0.871487419863E+03    0.76473E-04   -0.10140E-03  2112   0.565E-02    0.503E-02
DAV:   6    -0.871487377863E+03    0.42001E-04   -0.25602E-04  2032   0.261E-02    0.256E-02
DAV:   7    -0.871487359808E+03    0.18055E-04   -0.28226E-05  1616   0.160E-02    0.133E-02
DAV:   8    -0.871487355007E+03    0.48014E-05   -0.17828E-05  1528   0.207E-02
  31 F= -.87148736E+03 E0= -.87148736E+03  d E =-.803930E-01  mag=     0.0000
 BRION: g(F)=  0.588E-01 g(S)=  0.000E+00 retain N=  1 mean eig= 0.17
 eig:   0.166
 bond charge predicted
       N       E                     dE             d eps       ncg     rms          rms(c)
DAV:   1    -0.871453539758E+03    0.33820E-01   -0.53375E+00  1728   0.386E+00    0.502E-01
DAV:   2    -0.871464816076E+03   -0.11276E-01   -0.19214E-01  2096   0.681E-01    0.402E-01
DAV:   3    -0.871461098378E+03    0.37177E-02   -0.52766E-03  2160   0.174E-01    0.260E-01
DAV:   4    -0.871458227849E+03    0.28705E-02   -0.50833E-03  2176   0.203E-01    0.998E-02
DAV:   5    -0.871457839612E+03    0.38824E-03   -0.26089E-03  2288   0.128E-01    0.679E-02
DAV:   6    -0.871457653532E+03    0.18608E-03   -0.13638E-03  2144   0.905E-02    0.473E-02
DAV:   7    -0.871457520457E+03    0.13308E-03   -0.17402E-04  2208   0.463E-02    0.312E-02
DAV:   8    -0.871457390092E+03    0.13036E-03   -0.10922E-04  2336   0.691E-02    0.905E-03
DAV:   9    -0.871457381836E+03    0.82560E-05   -0.14554E-04  2272   0.376E-02    0.140E-02
DAV:  10    -0.871457389654E+03   -0.78179E-05   -0.70500E-05  1840   0.160E-02
  32 F= -.87145739E+03 E0= -.87145739E+03  d E =0.299654E-01  mag=    -0.0000
 BRION: g(F)=  0.356E+00 g(S)=  0.000E+00 retain N=  2 mean eig= 0.18
 eig:   0.176  0.176
 bond charge predicted
       N       E                     dE             d eps       ncg     rms          rms(c)
DAV:   1    -0.871496083865E+03   -0.38702E-01   -0.35352E+00  1744   0.313E+00    0.385E-01
DAV:   2    -0.871501754940E+03   -0.56711E-02   -0.11312E-01  2096   0.538E-01    0.283E-01
DAV:   3    -0.871499043089E+03    0.27119E-02   -0.36679E-03  2176   0.156E-01    0.176E-01
DAV:   4    -0.871497128504E+03    0.19146E-02   -0.27754E-03  2176   0.170E-01    0.554E-02
DAV:   5    -0.871496905127E+03    0.22338E-03   -0.18796E-03  2224   0.107E-01    0.451E-02
DAV:   6    -0.871496753639E+03    0.15149E-03   -0.53437E-04  2208   0.617E-02    0.326E-02
DAV:   7    -0.871496605826E+03    0.14781E-03   -0.64615E-05  2176   0.542E-02    0.207E-02
DAV:   8    -0.871496559234E+03    0.46593E-04   -0.15905E-04  2104   0.699E-02    0.945E-03
DAV:   9    -0.871496570987E+03   -0.11753E-04   -0.26694E-04  1840   0.309E-02    0.117E-02
DAV:  10    -0.871496549160E+03    0.21827E-04   -0.30832E-05  1648   0.109E-02    0.101E-02
DAV:  11    -0.871496587547E+03   -0.38387E-04   -0.28416E-05  1440   0.112E-02    0.602E-03
DAV:  12    -0.871496560624E+03    0.26922E-04   -0.75509E-05  1688   0.158E-02    0.903E-03
DAV:  13    -0.871496559552E+03    0.10720E-05   -0.10615E-05  1536   0.671E-03
  33 F= -.87149656E+03 E0= -.87149656E+03  d E =-.391699E-01  mag=    -0.0000
 BRION: g(F)=  0.172E-01 g(S)=  0.000E+00 retain N=  1 mean eig= 0.21
 eig:   0.214
 bond charge predicted
       N       E                     dE             d eps       ncg     rms          rms(c)
DAV:   1    -0.871483386349E+03    0.13174E-01   -0.26177E+00  1728   0.245E+00    0.330E-01
DAV:   2    -0.871489855750E+03   -0.64694E-02   -0.87868E-02  2112   0.404E-01    0.243E-01
DAV:   3    -0.871488655352E+03    0.12004E-02   -0.20662E-03  2112   0.972E-02    0.160E-01
DAV:   4    -0.871487751621E+03    0.90373E-03   -0.20435E-03  2112   0.119E-01    0.507E-02
DAV:   5    -0.871487705672E+03    0.45949E-04   -0.91501E-04  2256   0.671E-02    0.394E-02
DAV:   6    -0.871487664793E+03    0.40879E-04   -0.24096E-04  2072   0.334E-02    0.201E-02
DAV:   7    -0.871487624390E+03    0.40403E-04   -0.13933E-05  1616   0.230E-02    0.125E-02
DAV:   8    -0.871487597602E+03    0.26788E-04   -0.32368E-05  1856   0.311E-02    0.595E-03
DAV:   9    -0.871487597367E+03    0.23445E-06   -0.32453E-05  1776   0.208E-02
  34 F= -.87148760E+03 E0= -.87148760E+03  d E =0.896218E-02  mag=     0.0000
 BRION: g(F)=  0.157E+00 g(S)=  0.000E+00 retain N=  2 mean eig= 0.11
 eig:   0.161  0.052
 bond charge predicted
       N       E                     dE             d eps       ncg     rms          rms(c)
DAV:   1    -0.871498405477E+03   -0.10808E-01   -0.88098E-01  1728   0.136E+00    0.229E-01
DAV:   2    -0.871501988725E+03   -0.35832E-02   -0.45575E-02  2064   0.258E-01    0.190E-01
DAV:   3    -0.871501416799E+03    0.57193E-03   -0.11888E-03  2112   0.627E-02    0.123E-01
DAV:   4    -0.871500976292E+03    0.44051E-03   -0.46063E-04  2224   0.645E-02    0.738E-02
DAV:   5    -0.871500846539E+03    0.12975E-03   -0.37652E-04  2176   0.484E-02    0.338E-02
DAV:   6    -0.871500832834E+03    0.13705E-04   -0.20194E-04  2096   0.269E-02    0.167E-02
DAV:   7    -0.871500814816E+03    0.18019E-04   -0.22424E-05  1560   0.162E-02    0.118E-02
DAV:   8    -0.871500806413E+03    0.84029E-05   -0.10085E-05  1456   0.130E-02
  35 F= -.87150081E+03 E0= -.87150081E+03  d E =-.132090E-01  mag=     0.0000
 BRION: g(F)=  0.229E-01 g(S)=  0.000E+00 retain N=  1 mean eig= 0.16
 eig:   0.162
 bond charge predicted
       N       E                     dE             d eps       ncg     rms          rms(c)
DAV:   1    -0.871487963560E+03    0.12851E-01   -0.24910E+00  1728   0.236E+00    0.327E-01
DAV:   2    -0.871494357489E+03   -0.63939E-02   -0.85668E-02  2096   0.392E-01    0.240E-01
DAV:   3    -0.871493239790E+03    0.11177E-02   -0.20429E-03  2144   0.940E-02    0.158E-01
DAV:   4    -0.871492394573E+03    0.84522E-03   -0.19956E-03  2144   0.117E-01    0.528E-02
DAV:   5    -0.871492343612E+03    0.50960E-04   -0.83314E-04  2176   0.641E-02    0.405E-02
DAV:   6    -0.871492299920E+03    0.43692E-04   -0.24219E-04  2032   0.335E-02    0.190E-02
DAV:   7    -0.871492259333E+03    0.40587E-04   -0.15832E-05  1608   0.232E-02    0.122E-02
DAV:   8    -0.871492231416E+03    0.27918E-04   -0.36595E-05  1752   0.319E-02    0.543E-03
DAV:   9    -0.871492229907E+03    0.15092E-05   -0.53986E-05  1616   0.231E-02
  36 F= -.87149223E+03 E0= -.87149223E+03  d E =0.857651E-02  mag=    -0.0000
 BRION: g(F)=  0.143E+00 g(S)=  0.000E+00 retain N=  2 mean eig= 0.18
 eig:   0.182  0.182
 bond charge predicted
       N       E                     dE             d eps       ncg     rms          rms(c)
DAV:   1    -0.871505553456E+03   -0.13322E-01   -0.97494E-01  1760   0.163E+00    0.211E-01
DAV:   2    -0.871507568310E+03   -0.20149E-02   -0.36141E-02  2096   0.296E-01    0.168E-01
DAV:   3    -0.871506775436E+03    0.79287E-03   -0.13009E-03  2128   0.879E-02    0.105E-01
DAV:   4    -0.871506214430E+03    0.56101E-03   -0.63260E-04  2232   0.847E-02    0.514E-02
DAV:   5    -0.871506061417E+03    0.15301E-03   -0.46845E-04  2200   0.638E-02    0.262E-02
DAV:   6    -0.871506029138E+03    0.32280E-04   -0.29232E-04  2144   0.399E-02    0.204E-02
DAV:   7    -0.871505976595E+03    0.52542E-04   -0.25984E-05  1616   0.330E-02    0.163E-02
DAV:   8    -0.871505955562E+03    0.21034E-04   -0.37156E-05  1712   0.221E-02    0.904E-03
DAV:   9    -0.871505962132E+03   -0.65708E-05   -0.50820E-05  1648   0.228E-02
  37 F= -.87150596E+03 E0= -.87150596E+03  d E =-.137322E-01  mag=    -0.0000
 BRION: g(F)=  0.775E-02 g(S)=  0.000E+00 retain N=  1 mean eig= 0.19
 eig:   0.191
 bond charge predicted
       N       E                     dE             d eps       ncg     rms          rms(c)
DAV:   1    -0.871505299758E+03    0.65580E-03   -0.86952E-01  1728   0.149E+00    0.198E-01
DAV:   2    -0.871507011464E+03   -0.17117E-02   -0.25567E-02  2096   0.242E-01    0.158E-01
DAV:   3    -0.871506612185E+03    0.39928E-03   -0.60369E-04  2096   0.590E-02    0.102E-01
DAV:   4    -0.871506348738E+03    0.26345E-03   -0.70043E-04  2064   0.671E-02    0.343E-02
DAV:   5    -0.871506313828E+03    0.34910E-04   -0.27082E-04  2240   0.421E-02    0.232E-02
DAV:   6    -0.871506300600E+03    0.13228E-04   -0.14437E-04  2072   0.274E-02    0.148E-02
DAV:   7    -0.871506290575E+03    0.10025E-04   -0.21180E-05  1448   0.135E-02    0.829E-03
DAV:   8    -0.871506291132E+03   -0.55694E-06   -0.34407E-05  1632   0.214E-02
  38 F= -.87150629E+03 E0= -.87150629E+03  d E =-.329000E-03  mag=    -0.0000
 BRION: g(F)=  0.322E-01 g(S)=  0.000E+00 retain N=  2 mean eig= 0.12
 eig:   0.146  0.086
 bond charge predicted
       N       E                     dE             d eps       ncg     rms          rms(c)
DAV:   1    -0.871509453100E+03   -0.31625E-02   -0.36251E-01  1744   0.946E-01    0.124E-01
DAV:   2    -0.871510362666E+03   -0.90957E-03   -0.13121E-02  2096   0.162E-01    0.949E-02
DAV:   3    -0.871510155739E+03    0.20693E-03   -0.34055E-04  2128   0.408E-02    0.624E-02
DAV:   4    -0.871509992433E+03    0.16331E-03   -0.29666E-04  2160   0.498E-02    0.223E-02
DAV:   5    -0.871509978155E+03    0.14278E-04   -0.15808E-04  2176   0.284E-02    0.159E-02
DAV:   6    -0.871509970269E+03    0.78859E-05   -0.45607E-05  1960   0.147E-02
  39 F= -.87150997E+03 E0= -.87150997E+03  d E =-.367914E-02  mag=     0.0000
 BRION: g(F)=  0.837E-02 g(S)=  0.000E+00 retain N=  2 mean eig= 3.66
 eig:   0.218  7.110
 bond charge predicted
       N       E                     dE             d eps       ncg     rms          rms(c)
DAV:   1    -0.871511171066E+03   -0.11929E-02   -0.76624E-02  1728   0.437E-01    0.662E-02
DAV:   2    -0.871511358413E+03   -0.18735E-03   -0.26360E-03  2064   0.733E-02    0.535E-02
DAV:   3    -0.871511320061E+03    0.38352E-04   -0.63102E-05  2032   0.179E-02    0.327E-02
DAV:   4    -0.871511301320E+03    0.18741E-04   -0.62394E-05  1936   0.181E-02    0.124E-02
DAV:   5    -0.871511299342E+03    0.19774E-05   -0.19260E-05  1504   0.104E-02
  40 F= -.87151130E+03 E0= -.87151130E+03  d E =-.132907E-02  mag=    -0.0000
 BRION: g(F)=  0.397E-02 g(S)=  0.000E+00 retain N=  2 mean eig= 0.45
 eig:   0.122  0.787
 bond charge predicted
       N       E                     dE             d eps       ncg     rms          rms(c)
DAV:   1    -0.871511923786E+03   -0.62247E-03   -0.42676E-01  1744   0.973E-01    0.152E-01
DAV:   2    -0.871512783975E+03   -0.86019E-03   -0.12145E-02  2048   0.150E-01    0.113E-01
DAV:   3    -0.871512620598E+03    0.16338E-03   -0.29864E-04  2176   0.410E-02    0.653E-02
DAV:   4    -0.871512538131E+03    0.82467E-04   -0.18518E-04  2080   0.363E-02    0.228E-02
DAV:   5    -0.871512526772E+03    0.11358E-04   -0.92751E-05  2176   0.264E-02    0.108E-02
DAV:   6    -0.871512523036E+03    0.37366E-05   -0.37709E-05  1968   0.137E-02
  41 F= -.87151252E+03 E0= -.87151252E+03  d E =-.122369E-02  mag=    -0.0000
 BRION: g(F)=  0.197E-01 g(S)=  0.000E+00 retain N=  3 mean eig= 0.35
 eig:   0.785  0.044  0.233
 bond charge predicted
       N       E                     dE             d eps       ncg     rms          rms(c)
DAV:   1    -0.871514248974E+03   -0.17222E-02   -0.13561E-01  1760   0.549E-01    0.781E-02
DAV:   2    -0.871514598851E+03   -0.34988E-03   -0.48682E-03  2096   0.913E-02    0.553E-02
DAV:   3    -0.871514528573E+03    0.70278E-04   -0.13066E-04  2144   0.237E-02    0.347E-02
DAV:   4    -0.871514482265E+03    0.46309E-04   -0.78095E-05  1984   0.241E-02    0.114E-02
DAV:   5    -0.871514479485E+03    0.27798E-05   -0.42609E-05  1984   0.150E-02
  42 F= -.87151448E+03 E0= -.87151448E+03  d E =-.195645E-02  mag=     0.0000
 BRION: g(F)=  0.279E-02 g(S)=  0.000E+00 retain N=  1 mean eig= 0.18
 eig:   0.177
 bond charge predicted
       N       E                     dE             d eps       ncg     rms          rms(c)
DAV:   1    -0.871516356651E+03   -0.18744E-02   -0.46163E-01  1728   0.881E-01    0.142E-01
DAV:   2    -0.871517147241E+03   -0.79059E-03   -0.97878E-03  2000   0.113E-01    0.974E-02
DAV:   3    -0.871517066348E+03    0.80893E-04   -0.18252E-04  1984   0.256E-02    0.570E-02
DAV:   4    -0.871517077078E+03   -0.10729E-04   -0.13252E-04  1728   0.184E-02    0.179E-02
DAV:   5    -0.871517081000E+03   -0.39222E-05   -0.23058E-05  1568   0.106E-02
  43 F= -.87151708E+03 E0= -.87151708E+03  d E =-.260152E-02  mag=    -0.0000
 BRION: g(F)=  0.320E-02 g(S)=  0.000E+00 retain N=  2 mean eig= 0.23
 eig:   0.234  0.234
 bond charge predicted
       N       E                     dE             d eps       ncg     rms          rms(c)
DAV:   1    -0.871517869458E+03   -0.79238E-03   -0.73058E-02  1728   0.372E-01    0.549E-02
DAV:   2    -0.871518009580E+03   -0.14012E-03   -0.17677E-03  2048   0.526E-02    0.351E-02
DAV:   3    -0.871517993600E+03    0.15979E-04   -0.37367E-05  1760   0.122E-02    0.212E-02
DAV:   4    -0.871517989856E+03    0.37440E-05   -0.25726E-05  1600   0.103E-02
  44 F= -.87151799E+03 E0= -.87151799E+03  d E =-.908856E-03  mag=    -0.0000
 BRION: g(F)=  0.263E-02 g(S)=  0.000E+00 retain N=  1 mean eig= 0.23
 eig:   0.228
 bond charge predicted
       N       E                     dE             d eps       ncg     rms          rms(c)
DAV:   1    -0.871519653073E+03   -0.16595E-02   -0.33456E-01  1728   0.751E-01    0.121E-01
DAV:   2    -0.871520226951E+03   -0.57388E-03   -0.70433E-03  1984   0.957E-02    0.839E-02
DAV:   3    -0.871520168939E+03    0.58013E-04   -0.13099E-04  1840   0.217E-02    0.488E-02
DAV:   4    -0.871520177358E+03   -0.84198E-05   -0.97864E-05  1584   0.150E-02
  45 F= -.87152018E+03 E0= -.87152018E+03  d E =-.218750E-02  mag=     0.0000
 BRION: g(F)=  0.265E-02 g(S)=  0.000E+00 retain N=  2 mean eig= 0.61
 eig:   0.154  1.069
 bond charge predicted
       N       E                     dE             d eps       ncg     rms          rms(c)
DAV:   1    -0.871521035910E+03   -0.86697E-03   -0.92107E-02  1728   0.395E-01    0.626E-02
DAV:   2    -0.871521203728E+03   -0.16782E-03   -0.20564E-03  2000   0.527E-02    0.396E-02
DAV:   3    -0.871521187621E+03    0.16107E-04   -0.38440E-05  1744   0.119E-02    0.235E-02
DAV:   4    -0.871521187818E+03   -0.19746E-06   -0.27367E-05  1456   0.909E-03
  46 F= -.87152119E+03 E0= -.87152119E+03  d E =-.101046E-02  mag=     0.0000
 BRION: g(F)=  0.247E-02 g(S)=  0.000E+00 retain N=  2 mean eig= 1.75
 eig:   0.156  3.342
 bond charge predicted
       N       E                     dE             d eps       ncg     rms          rms(c)
DAV:   1    -0.871522789278E+03   -0.16017E-02   -0.37795E-01  1728   0.798E-01    0.127E-01
DAV:   2    -0.871523428215E+03   -0.63894E-03   -0.78703E-03  1984   0.102E-01    0.873E-02
DAV:   3    -0.871523362565E+03    0.65650E-04   -0.15102E-04  1920   0.232E-02    0.510E-02
DAV:   4    -0.871523370085E+03   -0.75193E-05   -0.10916E-04  1632   0.165E-02    0.163E-02
DAV:   5    -0.871523373550E+03   -0.34649E-05   -0.19300E-05  1568   0.870E-03
  47 F= -.87152337E+03 E0= -.87152337E+03  d E =-.218573E-02  mag=    -0.0000
 BRION: g(F)=  0.262E-02 g(S)=  0.000E+00 retain N=  2 mean eig= 0.15
 eig:   0.151  0.147
 bond charge predicted
       N       E                     dE             d eps       ncg     rms          rms(c)
DAV:   1    -0.871523796150E+03   -0.42607E-03   -0.21766E-02  1728   0.226E-01    0.309E-02
DAV:   2    -0.871523829940E+03   -0.33790E-04   -0.53739E-04  2080   0.349E-02    0.211E-02
DAV:   3    -0.871523821860E+03    0.80805E-05   -0.15683E-05  1616   0.100E-02
  48 F= -.87152382E+03 E0= -.87152382E+03  d E =-.448310E-03  mag=     0.0000
 BRION: g(F)=  0.226E-02 g(S)=  0.000E+00 retain N=  2 mean eig= 1.54
 eig:   0.233  2.851
 bond charge predicted
       N       E                     dE             d eps       ncg     rms          rms(c)
DAV:   1    -0.871525097125E+03   -0.12672E-02   -0.25741E-01  1728   0.641E-01    0.102E-01
DAV:   2    -0.871525529665E+03   -0.43254E-03   -0.52258E-03  1984   0.791E-02    0.675E-02
DAV:   3    -0.871525491338E+03    0.38327E-04   -0.95646E-05  1792   0.166E-02    0.399E-02
DAV:   4    -0.871525499109E+03   -0.77713E-05   -0.66741E-05  1488   0.111E-02
  49 F= -.87152550E+03 E0= -.87152550E+03  d E =-.167725E-02  mag=     0.0000
 BRION: g(F)=  0.217E-02 g(S)=  0.000E+00 retain N=  2 mean eig= 0.29
 eig:   0.288  0.288
 bond charge predicted
       N       E                     dE             d eps       ncg     rms          rms(c)
DAV:   1    -0.871526518329E+03   -0.10270E-02   -0.11987E-01  1728   0.449E-01    0.796E-02
DAV:   2    -0.871526751299E+03   -0.23297E-03   -0.28129E-03  2016   0.590E-02    0.573E-02
DAV:   3    -0.871526727077E+03    0.24222E-04   -0.52781E-05  1840   0.141E-02    0.323E-02
DAV:   4    -0.871526726863E+03    0.21339E-06   -0.37861E-05  1440   0.922E-03
  50 F= -.87152673E+03 E0= -.87152673E+03  d E =-.122775E-02  mag=    -0.0000
 BRION: g(F)=  0.320E-02 g(S)=  0.000E+00 retain N=  1 mean eig= 0.13
 eig:   0.134
 bond charge predicted
       N       E                     dE             d eps       ncg     rms          rms(c)
DAV:   1    -0.871527641729E+03   -0.91465E-03   -0.12447E-01  1728   0.442E-01    0.697E-02
DAV:   2    -0.871527870326E+03   -0.22860E-03   -0.27049E-03  2000   0.560E-02    0.439E-02
DAV:   3    -0.871527851019E+03    0.19307E-04   -0.50366E-05  1744   0.118E-02    0.261E-02
DAV:   4    -0.871527851904E+03   -0.88513E-06   -0.31228E-05  1424   0.847E-03
  51 F= -.87152785E+03 E0= -.87152785E+03  d E =-.112504E-02  mag=     0.0000
 BRION: g(F)=  0.203E-02 g(S)=  0.000E+00 retain N=  2 mean eig= 2.27
 eig:   0.096  4.441
 bond charge predicted
       N       E                     dE             d eps       ncg     rms          rms(c)
DAV:   1    -0.871528654005E+03   -0.80299E-03   -0.86007E-02  1728   0.394E-01    0.599E-02
DAV:   2    -0.871528795629E+03   -0.14162E-03   -0.17941E-03  2016   0.526E-02    0.406E-02
DAV:   3    -0.871528779463E+03    0.16166E-04   -0.35452E-05  1760   0.129E-02    0.239E-02
DAV:   4    -0.871528778503E+03    0.96069E-06   -0.26725E-05  1488   0.101E-02
  52 F= -.87152878E+03 E0= -.87152878E+03  d E =-.926598E-03  mag=    -0.0000
 BRION: g(F)=  0.214E-02 g(S)=  0.000E+00 retain N=  2 mean eig= 0.33
 eig:   0.220  0.432
 bond charge predicted
       N       E                     dE             d eps       ncg     rms          rms(c)
DAV:   1    -0.871530097828E+03   -0.13184E-02   -0.29078E-01  1728   0.691E-01    0.108E-01
DAV:   2    -0.871530573138E+03   -0.47531E-03   -0.57788E-03  1984   0.866E-02    0.741E-02
DAV:   3    -0.871530527480E+03    0.45658E-04   -0.10900E-04  1824   0.191E-02    0.432E-02
DAV:   4    -0.871530534993E+03   -0.75128E-05   -0.77289E-05  1504   0.129E-02
  53 F= -.87153053E+03 E0= -.87153053E+03  d E =-.175649E-02  mag=    -0.0000
 BRION: g(F)=  0.205E-02 g(S)=  0.000E+00 retain N=  2 mean eig= 0.75
 eig:   0.150  1.353
 bond charge predicted
       N       E                     dE             d eps       ncg     rms          rms(c)
DAV:   1    -0.871530208068E+03    0.31941E-03   -0.73761E-03  1728   0.109E-01    0.251E-02
DAV:   2    -0.871530241893E+03   -0.33826E-04   -0.41572E-04  2000   0.201E-02    0.208E-02
DAV:   3    -0.871530237158E+03    0.47349E-05   -0.10798E-05  1472   0.458E-03
  54 F= -.87153024E+03 E0= -.87153024E+03  d E =0.297834E-03  mag=    -0.0000
 BRION: g(F)=  0.277E-02 g(S)=  0.000E+00 retain N=  2 mean eig= 0.33
 eig:   0.217  0.433
 bond charge predicted
       N       E                     dE             d eps       ncg     rms          rms(c)
DAV:   1    -0.871531888921E+03   -0.16470E-02   -0.61585E-01  1728   0.101E+00    0.158E-01
DAV:   2    -0.871532887566E+03   -0.99865E-03   -0.12236E-02  1968   0.126E-01    0.110E-01
DAV:   3    -0.871532787247E+03    0.10032E-03   -0.23707E-04  1904   0.274E-02    0.638E-02
DAV:   4    -0.871532803417E+03   -0.16170E-04   -0.16929E-04  1616   0.178E-02    0.203E-02
DAV:   5    -0.871532809514E+03   -0.60970E-05   -0.22729E-05  1472   0.828E-03
  55 F= -.87153281E+03 E0= -.87153281E+03  d E =-.257236E-02  mag=    -0.0000
 BRION: g(F)=  0.201E-02 g(S)=  0.000E+00 retain N=  2 mean eig= 1.36
 eig:   0.147  2.579
 bond charge predicted
       N       E                     dE             d eps       ncg     rms          rms(c)
DAV:   1    -0.871532788236E+03    0.15181E-04   -0.83865E-03  1760   0.152E-01    0.185E-02
DAV:   2    -0.871532796590E+03   -0.83533E-05   -0.25101E-04  2144   0.264E-02    0.134E-02
DAV:   3    -0.871532789723E+03    0.68673E-05   -0.10948E-05  1440   0.807E-03
  56 F= -.87153279E+03 E0= -.87153279E+03  d E =0.197919E-04  mag=    -0.0000
 BRION: g(F)=  0.189E-02 g(S)=  0.000E+00 retain N=  2 mean eig= 0.33
 eig:   0.198  0.460
 bond charge predicted
       N       E                     dE             d eps       ncg     rms          rms(c)
DAV:   1    -0.871534145549E+03   -0.13490E-02   -0.47948E-01  1728   0.884E-01    0.134E-01
DAV:   2    -0.871534912337E+03   -0.76679E-03   -0.93157E-03  1984   0.110E-01    0.918E-02
DAV:   3    -0.871534840088E+03    0.72249E-04   -0.17606E-04  1904   0.237E-02    0.540E-02
DAV:   4    -0.871534850400E+03   -0.10312E-04   -0.12557E-04  1600   0.165E-02    0.169E-02
DAV:   5    -0.871534854801E+03   -0.44015E-05   -0.19789E-05  1504   0.849E-03
  57 F= -.87153485E+03 E0= -.87153485E+03  d E =-.206508E-02  mag=     0.0000
 BRION: g(F)=  0.188E-02 g(S)=  0.000E+00 retain N=  3 mean eig= 0.51
 eig:   0.999  0.090  0.450
 bond charge predicted
       N       E                     dE             d eps       ncg     rms          rms(c)
DAV:   1    -0.871535660420E+03   -0.81002E-03   -0.13313E-01  1728   0.476E-01    0.707E-02
DAV:   2    -0.871535882805E+03   -0.22239E-03   -0.27119E-03  2000   0.620E-02    0.463E-02
DAV:   3    -0.871535860975E+03    0.21831E-04   -0.52346E-05  1792   0.138E-02    0.275E-02
DAV:   4    -0.871535860275E+03    0.69947E-06   -0.35698E-05  1488   0.113E-02
  58 F= -.87153586E+03 E0= -.87153586E+03  d E =-.100547E-02  mag=    -0.0000
 BRION: g(F)=  0.186E-02 g(S)=  0.000E+00 retain N=  3 mean eig= 2.60
 eig:   7.429  0.182  0.182
 bond charge predicted
       N       E                     dE             d eps       ncg     rms          rms(c)
DAV:   1    -0.871536281326E+03   -0.42035E-03   -0.44932E-02  1728   0.278E-01    0.532E-02
DAV:   2    -0.871536405810E+03   -0.12448E-03   -0.14731E-03  1984   0.412E-02    0.414E-02
DAV:   3    -0.871536392288E+03    0.13522E-04   -0.33004E-05  1776   0.972E-03    0.236E-02
DAV:   4    -0.871536386012E+03    0.62760E-05   -0.15201E-05  1408   0.736E-03
  59 F= -.87153639E+03 E0= -.87153639E+03  d E =-.525737E-03  mag=    -0.0000
 BRION: g(F)=  0.396E-02 g(S)=  0.000E+00 retain N=  2 mean eig= 0.10
 eig:   0.159  0.050
 bond charge predicted
       N       E                     dE             d eps       ncg     rms          rms(c)
DAV:   1    -0.871537103287E+03   -0.71100E-03   -0.96083E-02  1728   0.392E-01    0.598E-02
DAV:   2    -0.871537298849E+03   -0.19556E-03   -0.23188E-03  2016   0.521E-02    0.372E-02
DAV:   3    -0.871537281324E+03    0.17525E-04   -0.44783E-05  1776   0.113E-02    0.227E-02
DAV:   4    -0.871537277541E+03    0.37833E-05   -0.28387E-05  1520   0.981E-03
  60 F= -.87153728E+03 E0= -.87153728E+03  d E =-.891529E-03  mag=    -0.0000
 BRION: g(F)=  0.155E-02 g(S)=  0.000E+00 retain N=  2 mean eig= 3.67
 eig:   0.139  7.199
 bond charge predicted
       N       E                     dE             d eps       ncg     rms          rms(c)
DAV:   1    -0.871538060353E+03   -0.77903E-03   -0.13081E-01  1728   0.474E-01    0.696E-02
DAV:   2    -0.871538266544E+03   -0.20619E-03   -0.25431E-03  2016   0.618E-02    0.465E-02
DAV:   3    -0.871538245565E+03    0.20979E-04   -0.48946E-05  1808   0.139E-02    0.276E-02
DAV:   4    -0.871538245282E+03    0.28349E-06   -0.34585E-05  1472   0.109E-02
  61 F= -.87153825E+03 E0= -.87153825E+03  d E =-.967741E-03  mag=     0.0000
 BRION: g(F)=  0.167E-02 g(S)=  0.000E+00 retain N=  2 mean eig= 0.13
 eig:   0.227  0.035
 bond charge predicted
       N       E                     dE             d eps       ncg     rms          rms(c)
DAV:   1    -0.871538998317E+03   -0.75275E-03   -0.11123E-01  1728   0.437E-01    0.645E-02
DAV:   2    -0.871539172859E+03   -0.17454E-03   -0.21448E-03  2000   0.561E-02    0.434E-02
DAV:   3    -0.871539155142E+03    0.17717E-04   -0.39637E-05  1760   0.126E-02    0.255E-02
DAV:   4    -0.871539155252E+03   -0.10986E-06   -0.29367E-05  1424   0.969E-03
  62 F= -.87153916E+03 E0= -.87153916E+03  d E =-.909971E-03  mag=    -0.0000
 BRION: g(F)=  0.157E-02 g(S)=  0.000E+00 retain N=  3 mean eig= 0.50
 eig:   1.090  0.160  0.251
 bond charge predicted
       N       E                     dE             d eps       ncg     rms          rms(c)
DAV:   1    -0.871539597510E+03   -0.44237E-03   -0.30355E-02  1728   0.235E-01    0.351E-02
DAV:   2    -0.871539645622E+03   -0.48112E-04   -0.60960E-04  2016   0.315E-02    0.239E-02
DAV:   3    -0.871539639894E+03    0.57284E-05   -0.11586E-05  1504   0.792E-03
  63 F= -.87153964E+03 E0= -.87153964E+03  d E =-.484641E-03  mag=    -0.0000
 BRION: g(F)=  0.148E-02 g(S)=  0.000E+00 retain N=  2 mean eig= 0.62
 eig:   0.242  1.001
 bond charge predicted
       N       E                     dE             d eps       ncg     rms          rms(c)
DAV:   1    -0.871540366837E+03   -0.72121E-03   -0.21500E-01  1728   0.577E-01    0.883E-02
DAV:   2    -0.871540726621E+03   -0.35978E-03   -0.42910E-03  2000   0.708E-02    0.567E-02
DAV:   3    -0.871540696124E+03    0.30497E-04   -0.79753E-05  1792   0.147E-02    0.339E-02
DAV:   4    -0.871540698338E+03   -0.22143E-05   -0.52406E-05  1472   0.108E-02
  64 F= -.87154070E+03 E0= -.87154070E+03  d E =-.105844E-02  mag=    -0.0000
 BRION: g(F)=  0.236E-02 g(S)=  0.000E+00 retain N=  3 mean eig= 0.47
 eig:   0.270  0.136  1.005
 bond charge predicted
       N       E                     dE             d eps       ncg     rms          rms(c)
DAV:   1    -0.871541159265E+03   -0.46314E-03   -0.23913E-02  1728   0.213E-01    0.371E-02
DAV:   2    -0.871541217635E+03   -0.58369E-04   -0.71658E-04  2000   0.326E-02    0.283E-02
DAV:   3    -0.871541210234E+03    0.74005E-05   -0.16408E-05  1632   0.837E-03
  65 F= -.87154121E+03 E0= -.87154121E+03  d E =-.511896E-03  mag=    -0.0000
 BRION: g(F)=  0.140E-02 g(S)=  0.000E+00 retain N=  1 mean eig= 0.17
 eig:   0.165
 bond charge predicted
       N       E                     dE             d eps       ncg     rms          rms(c)
DAV:   1    -0.871542082683E+03   -0.86505E-03   -0.22920E-01  1728   0.609E-01    0.900E-02
DAV:   2    -0.871542433078E+03   -0.35039E-03   -0.42134E-03  1984   0.746E-02    0.609E-02
DAV:   3    -0.871542401076E+03    0.32002E-04   -0.75993E-05  1824   0.157E-02    0.360E-02
DAV:   4    -0.871542403384E+03   -0.23081E-05   -0.55670E-05  1472   0.117E-02
  66 F= -.87154240E+03 E0= -.87154240E+03  d E =-.119315E-02  mag=     0.0000
 BRION: g(F)=  0.141E-02 g(S)=  0.000E+00 retain N=  2 mean eig= 0.23
 eig:   0.230  0.230
 bond charge predicted
       N       E                     dE             d eps       ncg     rms          rms(c)
DAV:   1    -0.871542811541E+03   -0.41047E-03   -0.31398E-02  1728   0.244E-01    0.356E-02
DAV:   2    -0.871542860647E+03   -0.49106E-04   -0.63554E-04  2032   0.335E-02    0.238E-02
DAV:   3    -0.871542854321E+03    0.63269E-05   -0.12750E-05  1504   0.849E-03
  67 F= -.87154285E+03 E0= -.87154285E+03  d E =-.450936E-03  mag=     0.0000
 BRION: g(F)=  0.131E-02 g(S)=  0.000E+00 retain N=  1 mean eig= 0.25
 eig:   0.249
 bond charge predicted
       N       E                     dE             d eps       ncg     rms          rms(c)
DAV:   1    -0.871543594171E+03   -0.73352E-03   -0.21532E-01  1728   0.578E-01    0.873E-02
DAV:   2    -0.871543938825E+03   -0.34465E-03   -0.40941E-03  1984   0.699E-02    0.569E-02
DAV:   3    -0.871543909756E+03    0.29069E-04   -0.75243E-05  1792   0.141E-02    0.339E-02
DAV:   4    -0.871543913113E+03   -0.33572E-05   -0.50311E-05  1440   0.987E-03
  68 F= -.87154391E+03 E0= -.87154391E+03  d E =-.105879E-02  mag=    -0.0000
 BRION: g(F)=  0.178E-02 g(S)=  0.000E+00 retain N=  2 mean eig= 0.23
 eig:   0.259  0.203
 bond charge predicted
       N       E                     dE             d eps       ncg     rms          rms(c)
DAV:   1    -0.871544165677E+03   -0.25592E-03   -0.87711E-03  1712   0.123E-01    0.248E-02
DAV:   2    -0.871544196645E+03   -0.30968E-04   -0.35881E-04  2000   0.202E-02    0.203E-02
DAV:   3    -0.871544193023E+03    0.36217E-05   -0.86598E-06  1456   0.487E-03
  69 F= -.87154419E+03 E0= -.87154419E+03  d E =-.279910E-03  mag=    -0.0000
 BRION: g(F)=  0.137E-02 g(S)=  0.000E+00 retain N=  1 mean eig= 0.15
 eig:   0.148
 bond charge predicted
[...]
 462 F= -.87160053E+03 E0= -.87160053E+03  d E =-.669891E-04  mag=    -0.0000
 BRION: g(F)=  0.653E-04 g(S)=  0.000E+00 retain N=  1 mean eig= 0.26
 eig:   0.261
 bond charge predicted
       N       E                     dE             d eps       ncg     rms          rms(c)
DAV:   1    -0.871600561526E+03   -0.28023E-04   -0.14818E-02  1728   0.141E-01    0.202E-02
DAV:   2    -0.871600589138E+03   -0.27612E-04   -0.31053E-04  2000   0.174E-02    0.138E-02
DAV:   3    -0.871600587367E+03    0.17714E-05   -0.35537E-06  1200   0.339E-03
 463 F= -.87160059E+03 E0= -.87160059E+03  d E =-.566335E-04  mag=     0.0000
 BRION: g(F)=  0.846E-04 g(S)=  0.000E+00 retain N=  2 mean eig= 0.22
 eig:   0.270  0.164
 bond charge predicted
       N       E                     dE             d eps       ncg     rms          rms(c)
DAV:   1    -0.871600602773E+03   -0.13635E-04   -0.10446E-03  1616   0.426E-02    0.667E-03
DAV:   2    -0.871600604366E+03   -0.15927E-05   -0.21811E-05  1264   0.602E-03
 464 F= -.87160060E+03 E0= -.87160060E+03  d E =-.169990E-04  mag=    -0.0000
 BRION: g(F)=  0.612E-04 g(S)=  0.000E+00 retain N=  2 mean eig= 1.03
 eig:   0.060  1.994
 bond charge predicted
       N       E                     dE             d eps       ncg     rms          rms(c)
DAV:   1    -0.871600632140E+03   -0.29367E-04   -0.55198E-03  1648   0.841E-02    0.139E-02
DAV:   2    -0.871600642428E+03   -0.10288E-04   -0.11882E-04  1744   0.105E-02    0.953E-03
DAV:   3    -0.871600641766E+03    0.66211E-06   -0.19211E-06   960   0.247E-03
 465 F= -.87160064E+03 E0= -.87160064E+03  d E =-.374003E-04  mag=    -0.0000
 BRION: g(F)=  0.786E-04 g(S)=  0.000E+00 retain N=  2 mean eig= 0.27
 eig:   0.333  0.202
 bond charge predicted
       N       E                     dE             d eps       ncg     rms          rms(c)
DAV:   1    -0.871600669271E+03   -0.26843E-04   -0.61936E-03  1632   0.849E-02    0.135E-02
DAV:   2    -0.871600680979E+03   -0.11708E-04   -0.12899E-04  1696   0.101E-02    0.883E-03
DAV:   3    -0.871600680353E+03    0.62608E-06   -0.17989E-06   960   0.210E-03
 466 F= -.87160068E+03 E0= -.87160068E+03  d E =-.385869E-04  mag=     0.0000
 BRION: g(F)=  0.774E-04 g(S)=  0.000E+00 retain N=  3 mean eig= 0.35
 eig:   0.371  0.333  0.333
 bond charge predicted
       N       E                     dE             d eps       ncg     rms          rms(c)
DAV:   1    -0.871600687590E+03   -0.66108E-05   -0.16937E-04  1600   0.153E-02    0.330E-03
DAV:   2    -0.871600687905E+03   -0.31539E-06   -0.40584E-06  1008   0.218E-03
 467 F= -.87160069E+03 E0= -.87160069E+03  d E =-.755228E-05  mag=     0.0000
 BRION: g(F)=  0.641E-04 g(S)=  0.000E+00 retain N=  2 mean eig= 3.01
 eig:   0.016  6.012
 bond charge predicted
       N       E                     dE             d eps       ncg     rms          rms(c)
DAV:   1    -0.871600654609E+03    0.32981E-04   -0.10869E-01  1728   0.365E-01    0.549E-02
DAV:   2    -0.871600865742E+03   -0.21113E-03   -0.23194E-03  1920   0.436E-02    0.370E-02
DAV:   3    -0.871600854460E+03    0.11282E-04   -0.25755E-05  1664   0.743E-03    0.226E-02
DAV:   4    -0.871600851720E+03    0.27397E-05   -0.19323E-05  1328   0.606E-03
 468 F= -.87160085E+03 E0= -.87160085E+03  d E =-.163815E-03  mag=     0.0000
 BRION: g(F)=  0.942E-04 g(S)=  0.000E+00 retain N=  2 mean eig= 0.32
 eig:   0.254  0.378
 bond charge predicted
       N       E                     dE             d eps       ncg     rms          rms(c)
DAV:   1    -0.871600646896E+03    0.20756E-03   -0.45936E-02  1728   0.241E-01    0.362E-02
DAV:   2    -0.871600741414E+03   -0.94518E-04   -0.10502E-03  1872   0.297E-02    0.259E-02
DAV:   3    -0.871600735823E+03    0.55905E-05   -0.11818E-05  1568   0.505E-03
 469 F= -.87160074E+03 E0= -.87160074E+03  d E =0.115897E-03  mag=     0.0000
 BRION: g(F)=  0.185E-03 g(S)=  0.000E+00 retain N=  3 mean eig= 0.48
 eig:   0.262  0.590  0.590
 bond charge predicted
       N       E                     dE             d eps       ncg     rms          rms(c)
DAV:   1    -0.871600763754E+03   -0.22340E-04   -0.35672E-03  1696   0.742E-02    0.100E-02
DAV:   2    -0.871600773790E+03   -0.10036E-04   -0.11113E-04  1776   0.115E-02    0.719E-03
DAV:   3    -0.871600773243E+03    0.54670E-06   -0.18517E-06   960   0.260E-03
 470 F= -.87160077E+03 E0= -.87160077E+03  d E =-.374199E-04  mag=     0.0000
 BRION: g(F)=  0.760E-04 g(S)=  0.000E+00 retain N=  2 mean eig= 1.70
 eig:   0.031  3.362
 bond charge predicted
       N       E                     dE             d eps       ncg     rms          rms(c)
DAV:   1    -0.871600796444E+03   -0.22654E-04   -0.31223E-02  1728   0.199E-01    0.305E-02
DAV:   2    -0.871600856605E+03   -0.60160E-04   -0.67875E-04  1952   0.248E-02    0.208E-02
DAV:   3    -0.871600852749E+03    0.38559E-05   -0.83687E-06  1456   0.448E-03
 471 F= -.87160085E+03 E0= -.87160085E+03  d E =-.795054E-04  mag=     0.0000
 BRION: g(F)=  0.159E-03 g(S)=  0.000E+00 retain N=  3 mean eig= 1.27
 eig:   3.353  0.234  0.234
 bond charge predicted
       N       E                     dE             d eps       ncg     rms          rms(c)
DAV:   1    -0.871600872821E+03   -0.16217E-04   -0.15949E-03  1632   0.481E-02    0.947E-03
DAV:   2    -0.871600877078E+03   -0.42564E-05   -0.50281E-05  1568   0.845E-03
 472 F= -.87160088E+03 E0= -.87160088E+03  d E =-.243291E-04  mag=     0.0000
 BRION: g(F)=  0.622E-04 g(S)=  0.000E+00 retain N=  1 mean eig= 0.24
 eig:   0.238
 bond charge predicted
       N       E                     dE             d eps       ncg     rms          rms(c)
DAV:   1    -0.871600905177E+03   -0.32356E-04   -0.13356E-02  1728   0.137E-01    0.212E-02
DAV:   2    -0.871600930023E+03   -0.24845E-04   -0.29486E-04  2016   0.180E-02    0.145E-02
DAV:   3    -0.871600927983E+03    0.20398E-05   -0.41970E-06  1200   0.399E-03
 473 F= -.87160093E+03 E0= -.87160093E+03  d E =-.509052E-04  mag=     0.0000
 BRION: g(F)=  0.126E-03 g(S)=  0.000E+00 retain N=  2 mean eig= 0.19
 eig:   0.188  0.188
 bond charge predicted
       N       E                     dE             d eps       ncg     rms          rms(c)
DAV:   1    -0.871600946532E+03   -0.16509E-04   -0.13522E-03  1728   0.523E-02    0.752E-03
DAV:   2    -0.871600948981E+03   -0.24494E-05   -0.34761E-05  1504   0.809E-03
 474 F= -.87160095E+03 E0= -.87160095E+03  d E =-.209981E-04  mag=     0.0000
 BRION: g(F)=  0.620E-04 g(S)=  0.000E+00 retain N=  1 mean eig= 0.27
 eig:   0.274
 bond charge predicted
       N       E                     dE             d eps       ncg     rms          rms(c)
DAV:   1    -0.871600979588E+03   -0.33057E-04   -0.14298E-02  1728   0.139E-01    0.214E-02
DAV:   2    -0.871601005825E+03   -0.26237E-04   -0.30882E-04  2000   0.176E-02    0.148E-02
DAV:   3    -0.871601003787E+03    0.20385E-05   -0.42933E-06  1168   0.390E-03
 475 F= -.87160100E+03 E0= -.87160100E+03  d E =-.548060E-04  mag=     0.0000
 BRION: g(F)=  0.118E-03 g(S)=  0.000E+00 retain N=  2 mean eig= 0.19
 eig:   0.186  0.186
 bond charge predicted
       N       E                     dE             d eps       ncg     rms          rms(c)
DAV:   1    -0.871601019532E+03   -0.13706E-04   -0.93649E-04  1616   0.414E-02    0.653E-03
DAV:   2    -0.871601021297E+03   -0.17652E-05   -0.23822E-05  1264   0.631E-03
 476 F= -.87160102E+03 E0= -.87160102E+03  d E =-.175102E-04  mag=    -0.0000
 BRION: g(F)=  0.629E-04 g(S)=  0.000E+00 retain N=  1 mean eig= 0.26
 eig:   0.262
 bond charge predicted
       N       E                     dE             d eps       ncg     rms          rms(c)
DAV:   1    -0.871601053565E+03   -0.34033E-04   -0.14946E-02  1728   0.141E-01    0.215E-02
DAV:   2    -0.871601080864E+03   -0.27299E-04   -0.31664E-04  1968   0.174E-02    0.147E-02
DAV:   3    -0.871601078924E+03    0.19393E-05   -0.40538E-06  1120   0.351E-03
 477 F= -.87160108E+03 E0= -.87160108E+03  d E =-.576273E-04  mag=    -0.0000
 BRION: g(F)=  0.104E-03 g(S)=  0.000E+00 retain N=  2 mean eig= 0.20
 eig:   0.198  0.198
 bond charge predicted
       N       E                     dE             d eps       ncg     rms          rms(c)
DAV:   1    -0.871601092910E+03   -0.12046E-04   -0.74442E-04  1616   0.352E-02    0.599E-03
DAV:   2    -0.871601094377E+03   -0.14673E-05   -0.17357E-05  1120   0.528E-03
 478 F= -.87160109E+03 E0= -.87160109E+03  d E =-.154528E-04  mag=    -0.0000
 BRION: g(F)=  0.639E-04 g(S)=  0.000E+00 retain N=  2 mean eig= 3.57
 eig:   0.047  7.085
 bond charge predicted
       N       E                     dE             d eps       ncg     rms          rms(c)
DAV:   1    -0.871601127268E+03   -0.34358E-04   -0.10091E-02  1696   0.113E-01    0.175E-02
DAV:   2    -0.871601145807E+03   -0.18539E-04   -0.21017E-04  1936   0.137E-02    0.119E-02
DAV:   3    -0.871601144618E+03    0.11887E-05   -0.26040E-06  1040   0.256E-03
 479 F= -.87160114E+03 E0= -.87160114E+03  d E =-.502412E-04  mag=     0.0000
 BRION: g(F)=  0.727E-04 g(S)=  0.000E+00 retain N=  2 mean eig= 0.22
 eig:   0.274  0.171
 bond charge predicted
       N       E                     dE             d eps       ncg     rms          rms(c)
DAV:   1    -0.871601163285E+03   -0.17478E-04   -0.16683E-03  1600   0.452E-02    0.787E-03
DAV:   2    -0.871601166194E+03   -0.29090E-05   -0.32225E-05  1296   0.539E-03
 480 F= -.87160117E+03 E0= -.87160117E+03  d E =-.215756E-04  mag=    -0.0000
 BRION: g(F)=  0.663E-04 g(S)=  0.000E+00 retain N=  3 mean eig= 0.44
 eig:   0.361  0.486  0.486
 bond charge predicted
       N       E                     dE             d eps       ncg     rms          rms(c)
DAV:   1    -0.871601184721E+03   -0.21436E-04   -0.34476E-03  1648   0.707E-02    0.115E-02
DAV:   2    -0.871601191142E+03   -0.64212E-05   -0.78484E-05  1696   0.950E-03
 481 F= -.87160119E+03 E0= -.87160119E+03  d E =-.249481E-04  mag=    -0.0000
 BRION: g(F)=  0.868E-04 g(S)=  0.000E+00 retain N=  3 mean eig= 1.53
 eig:   3.388  0.862  0.345
 bond charge predicted
       N       E                     dE             d eps       ncg     rms          rms(c)
DAV:   1    -0.871601073288E+03    0.11143E-03   -0.18909E-01  1728   0.477E-01    0.761E-02
DAV:   2    -0.871601431303E+03   -0.35801E-03   -0.40200E-03  1920   0.567E-02    0.524E-02
DAV:   3    -0.871601409871E+03    0.21432E-04   -0.47860E-05  1696   0.102E-02    0.314E-02
DAV:   4    -0.871601406605E+03    0.32656E-05   -0.35596E-05  1408   0.794E-03
 482 F= -.87160141E+03 E0= -.87160141E+03  d E =-.215463E-03  mag=    -0.0000
 BRION: g(F)=  0.192E-03 g(S)=  0.000E+00 retain N=  3 mean eig= 2.58
 eig:   6.789  0.473  0.473
 bond charge predicted
       N       E                     dE             d eps       ncg     rms          rms(c)
DAV:   1    -0.871601451037E+03   -0.41166E-04   -0.14069E-02  1728   0.137E-01    0.219E-02
DAV:   2    -0.871601478115E+03   -0.27078E-04   -0.30456E-04  1936   0.170E-02    0.130E-02
DAV:   3    -0.871601476700E+03    0.14149E-05   -0.43610E-06  1200   0.333E-03
 483 F= -.87160148E+03 E0= -.87160148E+03  d E =-.700952E-04  mag=     0.0000
 BRION: g(F)=  0.904E-04 g(S)=  0.000E+00 retain N=  1 mean eig= 0.18
 eig:   0.181
 bond charge predicted
       N       E                     dE             d eps       ncg     rms          rms(c)
DAV:   1    -0.871601489414E+03   -0.11299E-04   -0.30138E-02  1728   0.212E-01    0.298E-02
DAV:   2    -0.871601545622E+03   -0.56208E-04   -0.66151E-04  2048   0.281E-02    0.199E-02
DAV:   3    -0.871601540852E+03    0.47704E-05   -0.95136E-06  1472   0.577E-03
 484 F= -.87160154E+03 E0= -.87160154E+03  d E =-.641515E-04  mag=    -0.0000
 BRION: g(F)=  0.222E-03 g(S)=  0.000E+00 retain N=  2 mean eig= 0.32
 eig:   0.282  0.356
 bond charge predicted
       N       E                     dE             d eps       ncg     rms          rms(c)
DAV:   1    -0.871601557189E+03   -0.11567E-04   -0.23004E-03  1728   0.798E-02    0.103E-02
DAV:   2    -0.871601561902E+03   -0.47124E-05   -0.82026E-05  1920   0.142E-02
 485 F= -.87160156E+03 E0= -.87160156E+03  d E =-.210499E-04  mag=     0.0000
 BRION: g(F)=  0.837E-04 g(S)=  0.000E+00 retain N=  2 mean eig= 2.80
 eig:   0.216  5.394
 bond charge predicted
       N       E                     dE             d eps       ncg     rms          rms(c)
DAV:   1    -0.871601573884E+03   -0.16695E-04   -0.87731E-04  1648   0.381E-02    0.747E-03
DAV:   2    -0.871601576075E+03   -0.21906E-05   -0.28916E-05  1344   0.619E-03
 486 F= -.87160158E+03 E0= -.87160158E+03  d E =-.141733E-04  mag=     0.0000
 BRION: g(F)=  0.637E-04 g(S)=  0.000E+00 retain N=  2 mean eig= 0.20
 eig:   0.282  0.109
 bond charge predicted
       N       E                     dE             d eps       ncg     rms          rms(c)
DAV:   1    -0.871601608017E+03   -0.34133E-04   -0.12286E-02  1712   0.123E-01    0.186E-02
DAV:   2    -0.871601630531E+03   -0.22514E-04   -0.25481E-04  1936   0.149E-02    0.127E-02
DAV:   3    -0.871601629125E+03    0.14060E-05   -0.33009E-06  1056   0.283E-03
 487 F= -.87160163E+03 E0= -.87160163E+03  d E =-.530502E-04  mag=     0.0000
 BRION: g(F)=  0.756E-04 g(S)=  0.000E+00 retain N=  3 mean eig= 0.18
 eig:   0.287  0.154  0.098
 bond charge predicted
       N       E                     dE             d eps       ncg     rms          rms(c)
DAV:   1    -0.871601639786E+03   -0.92551E-05   -0.39006E-04  1632   0.255E-02    0.444E-03
DAV:   2    -0.871601640380E+03   -0.59349E-06   -0.74337E-06  1008   0.349E-03
 488 F= -.87160164E+03 E0= -.87160164E+03  d E =-.112546E-04  mag=     0.0000
 BRION: g(F)=  0.629E-04 g(S)=  0.000E+00 retain N=  4 mean eig= 1.02
 eig:   2.305  1.224  0.271  0.271
 bond charge predicted
       N       E                     dE             d eps       ncg     rms          rms(c)
DAV:   1    -0.871601635639E+03    0.41472E-05   -0.76197E-02  1728   0.310E-01    0.458E-02
DAV:   2    -0.871601781265E+03   -0.14563E-03   -0.16091E-03  1936   0.374E-02    0.309E-02
DAV:   3    -0.871601773226E+03    0.80390E-05   -0.18392E-05  1616   0.641E-03
 489 F= -.87160177E+03 E0= -.87160177E+03  d E =-.132846E-03  mag=     0.0000
 BRION: g(F)=  0.113E-03 g(S)=  0.000E+00 retain N=  3 mean eig= 1.61
 eig:   3.856  0.485  0.485
 bond charge predicted
       N       E                     dE             d eps       ncg     rms          rms(c)
DAV:   1    -0.871601804333E+03   -0.23068E-04   -0.58576E-03  1728   0.923E-02    0.160E-02
DAV:   2    -0.871601814369E+03   -0.10036E-04   -0.11885E-04  1840   0.116E-02    0.104E-02
DAV:   3    -0.871601813698E+03    0.67086E-06   -0.23036E-06  1024   0.281E-03
 490 F= -.87160181E+03 E0= -.87160181E+03  d E =-.404726E-04  mag=     0.0000
 BRION: g(F)=  0.973E-04 g(S)=  0.000E+00 retain N=  3 mean eig= 0.54
 eig:   0.559  0.528  0.528
 bond charge predicted
       N       E                     dE             d eps       ncg     rms          rms(c)
DAV:   1    -0.871601660707E+03    0.15366E-03   -0.33680E-02  1728   0.203E-01    0.293E-02
DAV:   2    -0.871601727057E+03   -0.66350E-04   -0.72221E-04  1856   0.243E-02    0.202E-02
DAV:   3    -0.871601723866E+03    0.31910E-05   -0.76759E-06  1296   0.405E-03
 491 F= -.87160172E+03 E0= -.87160172E+03  d E =0.898323E-04  mag=    -0.0000
 BRION: g(F)=  0.704E-04 g(S)=  0.000E+00 retain N=  2 mean eig= 0.90
 eig:   0.012  1.792
 bond charge predicted
       N       E                     dE             d eps       ncg     rms          rms(c)
DAV:   1    -0.871601742949E+03   -0.15891E-04   -0.12946E-02  1728   0.146E-01    0.181E-02
DAV:   2    -0.871601769320E+03   -0.26371E-04   -0.31521E-04  2048   0.208E-02    0.128E-02
DAV:   3    -0.871601767030E+03    0.22901E-05   -0.48046E-06  1264   0.436E-03
 492 F= -.87160177E+03 E0= -.87160177E+03  d E =-.431638E-04  mag=     0.0000
 BRION: g(F)=  0.136E-03 g(S)=  0.000E+00 retain N=  3 mean eig= 0.64
 eig:   1.761  0.043  0.125
 bond charge predicted
       N       E                     dE             d eps       ncg     rms          rms(c)
DAV:   1    -0.871601785482E+03   -0.16162E-04   -0.12711E-03  1728   0.577E-02    0.727E-03
DAV:   2    -0.871601787939E+03   -0.24566E-05   -0.37297E-05  1616   0.943E-03
 493 F= -.87160179E+03 E0= -.87160179E+03  d E =-.209089E-04  mag=     0.0000
 BRION: g(F)=  0.637E-04 g(S)=  0.000E+00 retain N=  1 mean eig= 0.32
 eig:   0.322
 bond charge predicted
       N       E                     dE             d eps       ncg     rms          rms(c)
DAV:   1    -0.871601817244E+03   -0.31762E-04   -0.14710E-02  1728   0.143E-01    0.213E-02
DAV:   2    -0.871601843953E+03   -0.26709E-04   -0.31468E-04  2048   0.182E-02    0.147E-02
DAV:   3    -0.871601841863E+03    0.20901E-05   -0.40721E-06  1168   0.359E-03
 494 F= -.87160184E+03 E0= -.87160184E+03  d E =-.539239E-04  mag=     0.0000
 BRION: g(F)=  0.109E-03 g(S)=  0.000E+00 retain N=  2 mean eig= 0.22
 eig:   0.329  0.109
 bond charge predicted
       N       E                     dE             d eps       ncg     rms          rms(c)
DAV:   1    -0.871601856256E+03   -0.12303E-04   -0.95979E-04  1632   0.407E-02    0.658E-03
DAV:   2    -0.871601858489E+03   -0.22327E-05   -0.26244E-05  1280   0.626E-03
 495 F= -.87160186E+03 E0= -.87160186E+03  d E =-.166260E-04  mag=     0.0000
 BRION: g(F)=  0.626E-04 g(S)=  0.000E+00 retain N=  3 mean eig= 2.24
 eig:   6.314  0.319  0.087
 bond charge predicted
       N       E                     dE             d eps       ncg     rms          rms(c)
DAV:   1    -0.871601869106E+03   -0.12849E-04   -0.49409E-04  1632   0.261E-02    0.548E-03
DAV:   2    -0.871601869960E+03   -0.85439E-06   -0.11466E-05  1024   0.345E-03
 496 F= -.87160187E+03 E0= -.87160187E+03  d E =-.114712E-04  mag=    -0.0000
 BRION: g(F)=  0.594E-04 g(S)=  0.000E+00 retain N=  2 mean eig= 0.21
 eig:   0.110  0.308
 bond charge predicted
       N       E                     dE             d eps       ncg     rms          rms(c)
DAV:   1    -0.871601905345E+03   -0.36239E-04   -0.15275E-02  1712   0.134E-01    0.208E-02
DAV:   2    -0.871601933296E+03   -0.27951E-04   -0.31160E-04  1904   0.158E-02    0.142E-02
DAV:   3    -0.871601931665E+03    0.16312E-05   -0.36762E-06  1088   0.286E-03
 497 F= -.87160193E+03 E0= -.87160193E+03  d E =-.617048E-04  mag=     0.0000
 BRION: g(F)=  0.656E-04 g(S)=  0.000E+00 retain N=  3 mean eig= 0.16
 eig:   0.101  0.312  0.066
 bond charge predicted
       N       E                     dE             d eps       ncg     rms          rms(c)
DAV:   1    -0.871601912964E+03    0.20331E-04   -0.97345E-04  1600   0.353E-02    0.440E-03
DAV:   2    -0.871601915195E+03   -0.22307E-05   -0.24244E-05  1136   0.478E-03
 498 F= -.87160192E+03 E0= -.87160192E+03  d E =0.164695E-04  mag=    -0.0000
 BRION: g(F)=  0.759E-04 g(S)=  0.000E+00 retain N=  1 mean eig= 0.13
 eig:   0.129
 bond charge predicted
       N       E                     dE             d eps       ncg     rms          rms(c)
DAV:   1    -0.871601944066E+03   -0.31102E-04   -0.31451E-02  1728   0.190E-01    0.278E-02
DAV:   2    -0.871602005200E+03   -0.61134E-04   -0.66117E-04  1952   0.226E-02    0.183E-02
DAV:   3    -0.871602002211E+03    0.29898E-05   -0.69226E-06  1264   0.371E-03
 499 F= -.87160200E+03 E0= -.87160200E+03  d E =-.870153E-04  mag=     0.0000
 BRION: g(F)=  0.885E-04 g(S)=  0.000E+00 retain N=  2 mean eig= 0.54
 eig:   0.280  0.806
 bond charge predicted
       N       E                     dE             d eps       ncg     rms          rms(c)
DAV:   1    -0.871602013100E+03   -0.78995E-05   -0.45789E-04  1648   0.246E-02    0.586E-03
DAV:   2    -0.871602014154E+03   -0.10542E-05   -0.12519E-05  1072   0.357E-03
 500 F= -.87160201E+03 E0= -.87160201E+03  d E =-.119435E-04  mag=     0.0000
 BRION: g(F)=  0.572E-04 g(S)=  0.000E+00 retain N=  2 mean eig= 0.99
 eig:   0.199  1.778
--------------------------------------------------------
>>>  Job finished at Tue Jun 28 05:41:35 EDT 2022
