>>>  VASP 5.4.4 with BEEF-vdw and vtst
--------------------------------------------------------
>>>  Job information
     SLURM_JOBID=8842688
     SLURM_JOB_NODELIST=cpn-u22-25
     SLURM_NNODES=1
     SLURMTMPDIR=/scratch/8842688
     working directory = /projects/academic/ericwalk/ruthbell/Ads_Ag-SSZ13/H2S-S/PBE
--------------------------------------------------------
>>>  Module information
--------------------------------------------------------
>>>  Running Configuration
NPROCS=16
--------------------------------------------------------
>>>  Job started at Tue Jul  5 14:16:04 EDT 2022
--------------------------------------------------------
 running on   16 total cores
 distrk:  each k-point on   16 cores,    1 groups
 distr:  one band on    4 cores,    4 groups
 using from now: INCAR     
 vasp.5.4.4.18Apr17-6-g9f103f2a35 (build Dec 31 2018 11:41:54) complex          
  
 POSCAR found type information on POSCAR  O  Si Al Ag S  H 
 POSCAR found :  6 types and     114 ions
 scaLAPACK will be used
 LDA part: xc-table for Pade appr. of Perdew
 POSCAR found type information on POSCAR  O  Si Al Ag S  H 
 POSCAR found :  6 types and     114 ions
 POSCAR, INCAR and KPOINTS ok, starting setup
 FFT: planning ...
 WAVECAR not read
 WARNING: random wavefunctions but no delay for mixing, default for NELMDL
 entering main loop
       N       E                     dE             d eps       ncg     rms          rms(c)
DAV:   1     0.435144334883E+04    0.43514E+04   -0.25591E+05  1784   0.102E+03
DAV:   2    -0.407434842166E+03   -0.47589E+04   -0.45753E+04  2084   0.294E+02
DAV:   3    -0.925254483435E+03   -0.51782E+03   -0.51426E+03  2104   0.102E+02
DAV:   4    -0.935572339355E+03   -0.10318E+02   -0.10282E+02  2128   0.158E+01
DAV:   5    -0.935831728219E+03   -0.25939E+00   -0.25906E+00  2136   0.231E+00    0.867E+01
DAV:   6    -0.587224570596E+03    0.34861E+03   -0.71689E+02  2004   0.405E+01    0.281E+01
DAV:   7    -0.678559896231E+03   -0.91335E+02   -0.91517E+01  2024   0.133E+01    0.194E+01
DAV:   8    -0.744476858965E+03   -0.65917E+02   -0.27963E+01  2088   0.799E+00    0.113E+01
DAV:   9    -0.822532334537E+03   -0.78055E+02   -0.58861E+01  1996   0.909E+00    0.496E+00
DAV:  10    -0.835838820323E+03   -0.13306E+02   -0.77388E+00  2048   0.355E+00    0.353E+00
DAV:  11    -0.852675349903E+03   -0.16837E+02   -0.11572E+01  1916   0.407E+00    0.170E+00
DAV:  12    -0.854924236616E+03   -0.22489E+01   -0.11616E+00  1968   0.140E+00    0.936E-01
DAV:  13    -0.856061841986E+03   -0.11376E+01   -0.49201E-01  1904   0.950E-01    0.442E-01
DAV:  14    -0.856259796570E+03   -0.19795E+00   -0.77970E-02  1944   0.369E-01    0.276E-01
DAV:  15    -0.856279402613E+03   -0.19606E-01   -0.16101E-02  2008   0.251E-01    0.150E-01
DAV:  16    -0.856286968218E+03   -0.75656E-02   -0.60373E-03  2016   0.157E-01    0.116E-01
DAV:  17    -0.856291323479E+03   -0.43553E-02   -0.25794E-03  2144   0.121E-01    0.397E-02
DAV:  18    -0.856296533935E+03   -0.52105E-02   -0.19646E-03  1984   0.911E-02    0.532E-02
DAV:  19    -0.856297327452E+03   -0.79352E-03   -0.51503E-04  2024   0.513E-02    0.322E-02
DAV:  20    -0.856297959383E+03   -0.63193E-03   -0.38186E-04  2016   0.403E-02    0.143E-02
DAV:  21    -0.856298421480E+03   -0.46210E-03   -0.16155E-04  1976   0.280E-02    0.132E-02
DAV:  22    -0.856298531122E+03   -0.10964E-03   -0.73226E-05  1800   0.189E-02    0.525E-03
DAV:  23    -0.856298608027E+03   -0.76904E-04   -0.35651E-05  1744   0.125E-02    0.273E-03
DAV:  24    -0.856298652333E+03   -0.44306E-04   -0.17724E-05  1632   0.814E-03    0.241E-03
DAV:  25    -0.856298669626E+03   -0.17294E-04   -0.53673E-06  1512   0.414E-03    0.179E-03
DAV:  26    -0.856298682577E+03   -0.12951E-04   -0.33235E-06  1416   0.295E-03    0.131E-03
DAV:  27    -0.856298685621E+03   -0.30442E-05   -0.14658E-06  1488   0.182E-03
   1 F= -.85629869E+03 E0= -.85629869E+03  d E =-.856299E+03  mag=     0.0001
 BRION: g(F)=  0.172E+03 g(S)=  0.000E+00
 bond charge predicted
       N       E                     dE             d eps       ncg     rms          rms(c)
DAV:   1    -0.180032634756E+03    0.67627E+03   -0.59852E+03  1840   0.957E+01    0.221E+01
DAV:   2    -0.217967454192E+03   -0.37935E+02   -0.63609E+02  2136   0.255E+01    0.140E+01
DAV:   3    -0.215620640106E+03    0.23468E+01   -0.34802E+01  2096   0.667E+00    0.994E+00
DAV:   4    -0.213940610355E+03    0.16800E+01   -0.80341E+00  2096   0.296E+00    0.682E+00
DAV:   5    -0.213026495202E+03    0.91412E+00   -0.54470E+00  2232   0.305E+00    0.291E+00
DAV:   6    -0.212855458619E+03    0.17104E+00   -0.10821E+00  2176   0.142E+00    0.133E+00
DAV:   7    -0.212832586588E+03    0.22872E-01   -0.23243E-01  2112   0.734E-01    0.585E-01
DAV:   8    -0.212838271717E+03   -0.56851E-02   -0.13939E-01  2144   0.422E-01    0.923E-01
DAV:   9    -0.212846774994E+03   -0.85033E-02   -0.43712E-02  2080   0.154E-01    0.118E+00
DAV:  10    -0.212835056183E+03    0.11719E-01   -0.19028E-01  2272   0.239E-01    0.800E-01
DAV:  11    -0.212831913336E+03    0.31428E-02   -0.45315E-02  2136   0.177E-01    0.269E-01
DAV:  12    -0.212832418766E+03   -0.50543E-03   -0.19989E-03  2280   0.102E-01    0.260E-01
DAV:  13    -0.212832926109E+03   -0.50734E-03   -0.98348E-03  2224   0.170E-01    0.858E-02
DAV:  14    -0.212833296126E+03   -0.37002E-03   -0.92287E-04  2224   0.954E-02    0.514E-02
DAV:  15    -0.212833768843E+03   -0.47272E-03   -0.15240E-03  2168   0.965E-02    0.645E-02
DAV:  16    -0.212833865994E+03   -0.97151E-04   -0.66674E-04  2160   0.339E-02    0.422E-02
DAV:  17    -0.212833930518E+03   -0.64525E-04   -0.22215E-04  2056   0.215E-02    0.136E-02
DAV:  18    -0.212833978220E+03   -0.47701E-04   -0.20677E-05  1480   0.107E-02    0.109E-02
DAV:  19    -0.212834019226E+03   -0.41007E-04   -0.25588E-05  1512   0.112E-02    0.830E-03
DAV:  20    -0.212834032996E+03   -0.13770E-04   -0.18463E-05  1472   0.782E-03    0.522E-03
DAV:  21    -0.212834044508E+03   -0.11512E-04   -0.53396E-06  1392   0.460E-03    0.479E-03
DAV:  22    -0.212834047996E+03   -0.34878E-05   -0.29220E-06  1488   0.358E-03
   2 F= -.21283405E+03 E0= -.21283397E+03  d E =0.643465E+03  mag=     0.0000
 BRION: g(F)=  0.873E+06 g(S)=  0.000E+00 retain N=  1 mean eig= 0.00
 eig:   0.000
 bond charge predicted
       N       E                     dE             d eps       ncg     rms          rms(c)
DAV:   1    -0.789495429649E+03   -0.57666E+03   -0.97265E+02  2192   0.292E+01    0.199E+01
DAV:   2    -0.788824587021E+03    0.67084E+00   -0.79394E+01  1936   0.975E+00    0.991E+00
DAV:   3    -0.787883712885E+03    0.94087E+00   -0.14909E+01  2160   0.599E+00    0.618E+00
DAV:   4    -0.787392809417E+03    0.49090E+00   -0.35935E+00  2000   0.183E+00    0.315E+00
DAV:   5    -0.787271179761E+03    0.12163E+00   -0.39647E-01  2144   0.105E+00    0.171E+00
DAV:   6    -0.787250284928E+03    0.20895E-01   -0.26141E-01  2104   0.746E-01    0.110E+00
DAV:   7    -0.787243797228E+03    0.64877E-02   -0.20969E-01  2144   0.419E-01    0.758E-01
DAV:   8    -0.787242229392E+03    0.15678E-02   -0.77543E-02  2120   0.268E-01    0.471E-01
DAV:   9    -0.787242124204E+03    0.10519E-03   -0.42338E-03  1880   0.104E-01    0.440E-01
DAV:  10    -0.787240921082E+03    0.12031E-02   -0.36821E-03  2248   0.927E-02    0.312E-01
DAV:  11    -0.787240387828E+03    0.53325E-03   -0.16722E-02  2120   0.979E-02    0.209E-01
DAV:  12    -0.787240014310E+03    0.37352E-03   -0.25422E-03  2176   0.101E-01    0.802E-02
DAV:  13    -0.787239964084E+03    0.50226E-04   -0.67389E-04  2360   0.608E-02    0.541E-02
DAV:  14    -0.787239943569E+03    0.20514E-04   -0.98608E-05  1872   0.176E-02    0.336E-02
DAV:  15    -0.787239934045E+03    0.95236E-05   -0.14536E-04  1856   0.276E-02    0.134E-02
DAV:  16    -0.787239937345E+03   -0.32997E-05   -0.32686E-05  1736   0.132E-02
   3 F= -.78723994E+03 E0= -.78723990E+03  d E =-.574406E+03  mag=    -0.0000
 BRION: g(F)=  0.757E+04 g(S)=  0.000E+00 retain N=  1 mean eig= 0.00
 eig:   0.002
 bond charge predicted
       N       E                     dE             d eps       ncg     rms          rms(c)
DAV:   1    -0.805818147385E+03   -0.18578E+02   -0.41267E+03  1776   0.842E+01    0.176E+01
DAV:   2    -0.840072953032E+03   -0.34255E+02   -0.46418E+02  2080   0.313E+01    0.137E+01
DAV:   3    -0.837898129469E+03    0.21748E+01   -0.58535E+01  2120   0.144E+01    0.765E+00
DAV:   4    -0.837927515615E+03   -0.29386E-01   -0.22239E+01  2384   0.418E+00    0.899E+00
DAV:   5    -0.836106124641E+03    0.18214E+01   -0.40878E+00  2384   0.288E+00    0.365E+00
DAV:   6    -0.836100404492E+03    0.57201E-02   -0.46194E+00  2256   0.176E+00    0.473E+00
DAV:   7    -0.835953156757E+03    0.14725E+00   -0.37459E+00  2224   0.192E+00    0.300E+00
DAV:   8    -0.835910869358E+03    0.42287E-01   -0.19474E+00  2464   0.153E+00    0.409E+00
DAV:   9    -0.835872693515E+03    0.38176E-01   -0.16896E+00  2320   0.671E-01    0.341E+00
DAV:  10    -0.835930941620E+03   -0.58248E-01   -0.23494E+00  2480   0.660E-01    0.330E+00
DAV:  11    -0.835849764948E+03    0.81177E-01   -0.49479E-02  2112   0.379E-01    0.227E+00
DAV:  12    -0.835854771810E+03   -0.50069E-02   -0.26749E-01  2072   0.201E-01    0.219E+00
DAV:  13    -0.835843580875E+03    0.11191E-01   -0.48479E-01  1992   0.303E-01    0.324E+00
DAV:  14    -0.835818307955E+03    0.25273E-01   -0.19943E-01  1840   0.225E-01    0.109E+00
DAV:  15    -0.835824540176E+03   -0.62322E-02   -0.29101E-03  1840   0.762E-02    0.112E+00
DAV:  16    -0.835821181127E+03    0.33590E-02   -0.10242E-02  2288   0.124E-01    0.601E-01
DAV:  17    -0.835823149331E+03   -0.19682E-02   -0.13321E-02  1904   0.896E-02    0.467E-01
DAV:  18    -0.835823317538E+03   -0.16821E-03   -0.15708E-03  1768   0.460E-02    0.475E-01
DAV:  19    -0.835825145825E+03   -0.18283E-02   -0.23061E-02  2024   0.106E-01    0.934E-01
DAV:  20    -0.835823275984E+03    0.18698E-02   -0.78764E-02  1936   0.125E-01    0.741E-01
DAV:  21    -0.835825228189E+03   -0.19522E-02   -0.17728E-03  1840   0.643E-02    0.827E-01
DAV:  22    -0.835822567701E+03    0.26605E-02   -0.20931E-02  2048   0.730E-02    0.208E-01
DAV:  23    -0.835824038052E+03   -0.14704E-02   -0.31605E-03  2144   0.893E-02    0.229E-01
DAV:  24    -0.835824027516E+03    0.10535E-04   -0.13413E-03  2056   0.502E-02    0.161E-01
DAV:  25    -0.835824081672E+03   -0.54155E-04   -0.18027E-03  1992   0.268E-02    0.101E-01
DAV:  26    -0.835824190438E+03   -0.10877E-03   -0.64686E-04  1912   0.212E-02    0.709E-02
DAV:  27    -0.835824197264E+03   -0.68260E-05   -0.25744E-04  1536   0.149E-02    0.313E-02
DAV:  28    -0.835824205305E+03   -0.80416E-05   -0.27784E-05  1440   0.745E-03
   4 F= -.83582421E+03 E0= -.83580011E+03  d E =-.485843E+02  mag=     0.0021
 BRION: g(F)=  0.277E+03 g(S)=  0.000E+00 retain N=  1 mean eig= 0.01
 eig:   0.006
 bond charge predicted
       N       E                     dE             d eps       ncg     rms          rms(c)
DAV:   1    -0.684188997933E+03    0.15164E+03   -0.13885E+04  1808   0.170E+02    0.286E+01
DAV:   2    -0.826658124444E+03   -0.14247E+03   -0.16142E+03  2184   0.527E+01    0.337E+01
DAV:   3    -0.808103150894E+03    0.18555E+02   -0.12976E+02  2128   0.159E+01    0.273E+01
DAV:   4    -0.801199305718E+03    0.69038E+01   -0.37245E+01  2096   0.992E+00    0.200E+01
DAV:   5    -0.797658124333E+03    0.35412E+01   -0.30360E+01  2176   0.636E+00    0.156E+01
DAV:   6    -0.794243037290E+03    0.34151E+01   -0.27882E+01  2416   0.743E+00    0.212E+01
DAV:   7    -0.793158499248E+03    0.10845E+01   -0.45318E+01  2064   0.329E+00    0.962E+00
DAV:   8    -0.792132791901E+03    0.10257E+01   -0.27187E+00  2296   0.315E+00    0.806E+00
DAV:   9    -0.792153726573E+03   -0.20935E-01   -0.78032E+00  2160   0.190E+00    0.562E+00
DAV:  10    -0.792156750784E+03   -0.30242E-02   -0.74031E-01  2232   0.174E+00    0.716E+00
DAV:  11    -0.791833681563E+03    0.32307E+00   -0.22223E+00  2296   0.122E+00    0.656E+00
DAV:  12    -0.791818290401E+03    0.15391E-01   -0.19427E+00  1984   0.592E-01    0.514E+00
DAV:  13    -0.791731725498E+03    0.86565E-01   -0.59975E-01  2016   0.482E-01    0.348E+00
DAV:  14    -0.791700788724E+03    0.30937E-01   -0.43576E-01  2048   0.389E-01    0.395E+00
DAV:  15    -0.791677827775E+03    0.22961E-01   -0.36229E-01  1872   0.276E-01    0.278E+00
DAV:  16    -0.791680966224E+03   -0.31384E-02   -0.95322E-02  1816   0.216E-01    0.202E+00
DAV:  17    -0.791683218395E+03   -0.22522E-02   -0.34930E-03  1792   0.965E-02    0.186E+00
DAV:  18    -0.791682150562E+03    0.10678E-02   -0.37383E-02  1976   0.158E-01    0.109E+00
DAV:  19    -0.791693679554E+03   -0.11529E-01   -0.95926E-03  1792   0.102E-01    0.128E+00
DAV:  20    -0.791685529648E+03    0.81499E-02   -0.11508E-01  1864   0.193E-01    0.169E+00
DAV:  21    -0.791687620190E+03   -0.20905E-02   -0.48082E-03  1808   0.892E-02    0.163E+00
DAV:  22    -0.791686000977E+03    0.16192E-02   -0.47436E-02  2032   0.144E-01    0.156E+00
DAV:  23    -0.791685607746E+03    0.39323E-03   -0.44434E-02  1832   0.114E-01    0.914E-01
DAV:  24    -0.791687853943E+03   -0.22462E-02   -0.21323E-02  1792   0.910E-02    0.173E+00
DAV:  25    -0.791686794189E+03    0.10598E-02   -0.97284E-04  1776   0.549E-02    0.191E+00
DAV:  26    -0.791686948067E+03   -0.15388E-03   -0.50506E-02  1976   0.135E-01    0.122E+00
DAV:  27    -0.791688933661E+03   -0.19856E-02   -0.10166E-02  1832   0.127E-01    0.100E+00
DAV:  28    -0.791689135103E+03   -0.20144E-03   -0.21505E-02  2032   0.102E-01    0.957E-01
DAV:  29    -0.791689471583E+03   -0.33648E-03   -0.10342E-02  1912   0.890E-02    0.385E-01
DAV:  30    -0.791691452002E+03   -0.19804E-02   -0.20036E-03  1840   0.517E-02    0.488E-01
DAV:  31    -0.791691598754E+03   -0.14675E-03   -0.18871E-03  1960   0.258E-02    0.384E-01
DAV:  32    -0.791691613582E+03   -0.14828E-04   -0.72723E-04  1672   0.284E-02    0.433E-01
DAV:  33    -0.791690153677E+03    0.14599E-02   -0.43262E-03  1808   0.390E-02    0.394E-01
DAV:  34    -0.791690710744E+03   -0.55707E-03   -0.19417E-03  1872   0.309E-02    0.256E-01
DAV:  35    -0.791691294506E+03   -0.58376E-03   -0.19248E-03  1880   0.268E-02    0.754E-02
DAV:  36    -0.791691799802E+03   -0.50530E-03   -0.67339E-04  1872   0.227E-02    0.129E-01
DAV:  37    -0.791691918474E+03   -0.11867E-03   -0.21052E-04  1848   0.148E-02    0.116E-01
DAV:  38    -0.791691944609E+03   -0.26136E-04   -0.12917E-04  1496   0.103E-02    0.590E-02
DAV:  39    -0.791691977642E+03   -0.33032E-04   -0.99109E-05  1408   0.807E-03    0.691E-02
DAV:  40    -0.791691992599E+03   -0.14958E-04   -0.64731E-05  1392   0.628E-03    0.203E-02
DAV:  41    -0.791692017964E+03   -0.25365E-04   -0.11918E-05  1392   0.491E-03    0.210E-02
DAV:  42    -0.791692023574E+03   -0.56094E-05   -0.74783E-06  1424   0.314E-03
   5 F= -.79169202E+03 E0= -.79167268E+03  d E =0.441322E+02  mag=    -0.0001
 BRION: g(F)=  0.926E+03 g(S)=  0.000E+00 retain N=  2 mean eig= 0.09
 eig:   0.001  0.177
 bond charge predicted
       N       E                     dE             d eps       ncg     rms          rms(c)
DAV:   1    -0.774363048447E+03    0.17329E+02   -0.59002E+03  1760   0.125E+02    0.281E+01
DAV:   2    -0.853508418012E+03   -0.79145E+02   -0.95333E+02  2288   0.349E+01    0.433E+01
DAV:   3    -0.833868059086E+03    0.19640E+02   -0.20624E+02  2192   0.113E+01    0.265E+01
DAV:   4    -0.824275501789E+03    0.95926E+01   -0.18668E+01  2336   0.722E+00    0.207E+01
DAV:   5    -0.821499191323E+03    0.27763E+01   -0.74327E+00  2232   0.412E+00    0.174E+01
DAV:   6    -0.817004944803E+03    0.44942E+01   -0.42935E+01  2456   0.984E+00    0.197E+01
DAV:   7    -0.815928967413E+03    0.10760E+01   -0.28808E+01  1952   0.354E+00    0.183E+01
DAV:   8    -0.814228800374E+03    0.17002E+01   -0.96087E+00  2144   0.163E+00    0.995E+00
DAV:   9    -0.813881672099E+03    0.34713E+00   -0.99505E+00  2472   0.182E+00    0.554E+00
DAV:  10    -0.814539641469E+03   -0.65797E+00   -0.75066E+00  2144   0.181E+00    0.193E+01
DAV:  11    -0.813511281994E+03    0.10284E+01   -0.78479E+00  2072   0.947E-01    0.646E+00
DAV:  12    -0.813705703484E+03   -0.19442E+00   -0.36344E+00  2208   0.128E+00    0.595E+00
DAV:  13    -0.813676194562E+03    0.29509E-01   -0.78654E-02  1904   0.426E-01    0.592E+00
DAV:  14    -0.813581097853E+03    0.95097E-01   -0.75070E-02  2136   0.344E-01    0.553E+00
DAV:  15    -0.813430278077E+03    0.15082E+00   -0.24690E+00  2072   0.698E-01    0.524E+00
DAV:  16    -0.813463226336E+03   -0.32948E-01   -0.36048E-01  1848   0.542E-01    0.408E+00
DAV:  17    -0.813457330750E+03    0.58956E-02   -0.96573E-03  1968   0.169E-01    0.407E+00
DAV:  18    -0.813463655937E+03   -0.63252E-02   -0.35749E-02  2136   0.250E-01    0.436E+00
DAV:  19    -0.813456668108E+03    0.69878E-02   -0.27312E-03  1832   0.858E-02    0.438E+00
DAV:  20    -0.813459293375E+03   -0.26253E-02   -0.14697E-01  2112   0.268E-01    0.389E+00
DAV:  21    -0.813465881808E+03   -0.65884E-02   -0.26203E-02  1864   0.191E-01    0.416E+00
DAV:  22    -0.813475181132E+03   -0.92993E-02   -0.49713E-03  1936   0.102E-01    0.419E+00
DAV:  23    -0.813370341772E+03    0.10484E+00   -0.32759E-01  1984   0.367E-01    0.378E+00
DAV:  24    -0.813377139425E+03   -0.67977E-02   -0.55306E-02  1856   0.239E-01    0.372E+00
DAV:  25    -0.813385519697E+03   -0.83803E-02   -0.80328E-02  1904   0.163E-01    0.493E+00
DAV:  26    -0.813382821069E+03    0.26986E-02   -0.36929E-03  1776   0.940E-02    0.484E+00
DAV:  27    -0.813404137717E+03   -0.21317E-01   -0.93604E-02  2112   0.312E-01    0.538E+00
DAV:  28    -0.813312237871E+03    0.91900E-01   -0.56011E-01  1920   0.500E-01    0.265E+00
DAV:  29    -0.813490433104E+03   -0.17820E+00   -0.18658E+00  2528   0.120E+00    0.826E+00
DAV:  30    -0.813377242419E+03    0.11319E+00   -0.51367E-01  1960   0.615E-01    0.725E+00
DAV:  31    -0.813219575640E+03    0.15767E+00   -0.10683E+00  1984   0.504E-01    0.355E+00
DAV:  32    -0.813265585655E+03   -0.46010E-01   -0.11670E-01  1896   0.277E-01    0.251E+00
DAV:  33    -0.813308049133E+03   -0.42463E-01   -0.13589E-01  1864   0.336E-01    0.331E+00
DAV:  34    -0.813284204714E+03    0.23844E-01   -0.68295E-02  1896   0.163E-01    0.263E+00
DAV:  35    -0.813281955063E+03    0.22497E-02   -0.88027E-02  1920   0.158E-01    0.214E+00
DAV:  36    -0.813283543237E+03   -0.15882E-02   -0.37393E-02  1888   0.185E-01    0.181E+00
DAV:  37    -0.813294032470E+03   -0.10489E-01   -0.12058E-02  2040   0.125E-01    0.184E+00
DAV:  38    -0.813294233047E+03   -0.20058E-03   -0.11709E-03  1864   0.461E-02    0.186E+00
DAV:  39    -0.813292477130E+03    0.17559E-02   -0.35923E-02  2072   0.236E-01    0.195E+00
DAV:  40    -0.813277699200E+03    0.14778E-01   -0.46479E-02  1888   0.176E-01    0.150E+00
DAV:  41    -0.813299052539E+03   -0.21353E-01   -0.10153E-01  1864   0.191E-01    0.169E+00
DAV:  42    -0.813293341676E+03    0.57109E-02   -0.24657E-02  1856   0.139E-01    0.153E+00
DAV:  43    -0.813298190158E+03   -0.48485E-02   -0.14931E-03  1816   0.666E-02    0.152E+00
DAV:  44    -0.813298590935E+03   -0.40078E-03   -0.29410E-04  1968   0.243E-02    0.149E+00
DAV:  45    -0.813302197826E+03   -0.36069E-02   -0.43309E-02  1968   0.166E-01    0.230E+00
DAV:  46    -0.813297127680E+03    0.50701E-02   -0.34491E-03  1760   0.949E-02    0.243E+00
DAV:  47    -0.813288725077E+03    0.84026E-02   -0.37665E-02  1944   0.184E-01    0.229E+00
DAV:  48    -0.813292353609E+03   -0.36285E-02   -0.10549E-02  1840   0.919E-02    0.234E+00
DAV:  49    -0.813291257456E+03    0.10962E-02   -0.43738E-03  1840   0.504E-02    0.210E+00
DAV:  50    -0.813290804202E+03    0.45325E-03   -0.14383E-02  2032   0.910E-02    0.204E+00
DAV:  51    -0.813295184684E+03   -0.43805E-02   -0.10105E-03  1792   0.565E-02    0.201E+00
DAV:  52    -0.813377066914E+03   -0.81882E-01   -0.75878E-01  1968   0.422E-01    0.725E+00
DAV:  53    -0.813315661111E+03    0.61406E-01   -0.31607E-02  1800   0.264E-01    0.715E+00
DAV:  54    -0.813289895714E+03    0.25765E-01   -0.24290E-02  2088   0.163E-01    0.692E+00
DAV:  55    -0.813296449265E+03   -0.65536E-02   -0.84825E-03  2056   0.899E-02    0.703E+00
DAV:  56    -0.813278240591E+03    0.18209E-01   -0.22542E-03  1856   0.416E-02    0.692E+00
DAV:  57    -0.813203424831E+03    0.74816E-01   -0.27583E-01  2056   0.260E-01    0.484E+00
DAV:  58    -0.813276801362E+03   -0.73377E-01   -0.30940E-02  1856   0.194E-01    0.563E+00
DAV:  59    -0.813274143938E+03    0.26574E-02   -0.17359E-03  1984   0.633E-02    0.563E+00
DAV:  60    -0.813273624842E+03    0.51910E-03   -0.13119E-03  1968   0.351E-02    0.570E+00
DAV:  61    -0.813267612980E+03    0.60119E-02   -0.94045E-03  2000   0.708E-02    0.542E+00
DAV:  62    -0.813264658266E+03    0.29547E-02   -0.67441E-02  2000   0.173E-01    0.535E+00
DAV:  63    -0.813277330572E+03   -0.12672E-01   -0.63763E-03  1848   0.919E-02    0.561E+00
DAV:  64    -0.813273556590E+03    0.37740E-02   -0.25804E-03  1928   0.360E-02    0.559E+00
DAV:  65    -0.813258380071E+03    0.15177E-01   -0.20071E-02  1936   0.112E-01    0.516E+00
DAV:  66    -0.813256451450E+03    0.19286E-02   -0.91028E-02  2144   0.209E-01    0.434E+00
DAV:  67    -0.813264682068E+03   -0.82306E-02   -0.10268E-01  1968   0.167E-01    0.416E+00
DAV:  68    -0.813276063380E+03   -0.11381E-01   -0.74958E-02  1768   0.142E-01    0.437E+00
DAV:  69    -0.813273161300E+03    0.29021E-02   -0.61077E-03  1856   0.743E-02    0.441E+00
DAV:  70    -0.813286129424E+03   -0.12968E-01   -0.72865E-02  1960   0.233E-01    0.585E+00
DAV:  71    -0.813282259639E+03    0.38698E-02   -0.34585E-02  2032   0.180E-01    0.632E+00
DAV:  72    -0.813275639834E+03    0.66198E-02   -0.83525E-02  1888   0.161E-01    0.579E+00
DAV:  73    -0.813273468641E+03    0.21712E-02   -0.27389E-03  1784   0.912E-02    0.575E+00
DAV:  74    -0.813274004966E+03   -0.53633E-03   -0.19060E-03  2016   0.431E-02    0.580E+00
DAV:  75    -0.813281185090E+03   -0.71801E-02   -0.53612E-02  2008   0.192E-01    0.578E+00
DAV:  76    -0.813302841889E+03   -0.21657E-01   -0.59011E-02  2032   0.193E-01    0.624E+00
DAV:  77    -0.813295090136E+03    0.77518E-02   -0.20349E-01  2032   0.293E-01    0.599E+00
DAV:  78    -0.813297949039E+03   -0.28589E-02   -0.14041E-01  1936   0.356E-01    0.385E+00
DAV:  79    -0.813308732792E+03   -0.10784E-01   -0.71160E-02  1912   0.214E-01    0.315E+00
DAV:  80    -0.813318832884E+03   -0.10100E-01   -0.84186E-02  1856   0.177E-01    0.349E+00
DAV:  81    -0.813317713207E+03    0.11197E-02   -0.42618E-03  1832   0.908E-02    0.343E+00
DAV:  82    -0.813315530661E+03    0.21825E-02   -0.65475E-02  2000   0.145E-01    0.325E+00
DAV:  83    -0.813323224178E+03   -0.76935E-02   -0.30414E-02  1792   0.134E-01    0.340E+00
DAV:  84    -0.813322506622E+03    0.71756E-03   -0.32806E-02  1888   0.832E-02    0.334E+00
DAV:  85    -0.813329268568E+03   -0.67619E-02   -0.87561E-03  1792   0.758E-02    0.349E+00
DAV:  86    -0.813344554208E+03   -0.15286E-01   -0.46918E-02  1968   0.133E-01    0.381E+00
DAV:  87    -0.813372161806E+03   -0.27608E-01   -0.11747E-01  2096   0.228E-01    0.414E+00
DAV:  88    -0.813372834857E+03   -0.67305E-03   -0.15136E-02  1760   0.134E-01    0.434E+00
DAV:  89    -0.813360300970E+03    0.12534E-01   -0.87176E-03  1944   0.919E-02    0.420E+00
DAV:  90    -0.813350855652E+03    0.94453E-02   -0.22314E-02  1848   0.907E-02    0.342E+00
DAV:  91    -0.813354235244E+03   -0.33796E-02   -0.10225E-01  1976   0.129E-01    0.204E+00
DAV:  92    -0.813372343290E+03   -0.18108E-01   -0.14266E-01  1952   0.283E-01    0.262E+00
DAV:  93    -0.813377254485E+03   -0.49112E-02   -0.60588E-03  1768   0.117E-01    0.273E+00
DAV:  94    -0.813373873575E+03    0.33809E-02   -0.20092E-03  1928   0.373E-02    0.256E+00
DAV:  95    -0.813362783094E+03    0.11090E-01   -0.16745E-02  1936   0.103E-01    0.207E+00
DAV:  96    -0.813364301393E+03   -0.15183E-02   -0.15154E-02  1992   0.161E-01    0.223E+00
DAV:  97    -0.813364756393E+03   -0.45500E-03   -0.22687E-02  2024   0.117E-01    0.136E+00
DAV:  98    -0.813368713913E+03   -0.39575E-02   -0.23284E-03  1816   0.581E-02    0.118E+00
DAV:  99    -0.813369475185E+03   -0.76127E-03   -0.52560E-04  1928   0.276E-02    0.116E+00
DAV: 100    -0.813367103182E+03    0.23720E-02   -0.19983E-03  1912   0.315E-02
   6 F= -.81336710E+03 E0= -.81335192E+03  d E =-.216751E+02  mag=     0.2546
 BRION: g(F)=  0.448E+03 g(S)=  0.000E+00 retain N=  3 mean eig= 0.59
 eig:   0.041  0.041  1.694
 bond charge predicted
       N       E                     dE             d eps       ncg     rms          rms(c)
DAV:   1    -0.793898489974E+03    0.19471E+02   -0.28460E+03  1760   0.734E+01    0.179E+01
DAV:   2    -0.809133374102E+03   -0.15235E+02   -0.23666E+02  2120   0.184E+01    0.287E+01
DAV:   3    -0.803786305280E+03    0.53471E+01   -0.73061E+01  2144   0.685E+00    0.161E+01
DAV:   4    -0.800888728875E+03    0.28976E+01   -0.12544E+01  2152   0.530E+00    0.144E+01
DAV:   5    -0.800497948846E+03    0.39078E+00   -0.15471E+01  2152   0.424E+00    0.137E+01
DAV:   6    -0.800160167334E+03    0.33778E+00   -0.20085E+01  2184   0.271E+00    0.164E+01
DAV:   7    -0.799519974841E+03    0.64019E+00   -0.23022E+01  2472   0.226E+00    0.976E+00
DAV:   8    -0.799263942933E+03    0.25603E+00   -0.33011E+00  2072   0.176E+00    0.670E+00
DAV:   9    -0.799252482956E+03    0.11460E-01   -0.58971E-01  2072   0.884E-01    0.598E+00
DAV:  10    -0.799237522532E+03    0.14960E-01   -0.37026E-02  1840   0.298E-01    0.605E+00
DAV:  11    -0.799190872440E+03    0.46650E-01   -0.17677E-02  2136   0.194E-01    0.589E+00
DAV:  12    -0.799149593447E+03    0.41279E-01   -0.97673E-01  1984   0.548E-01    0.378E+00
DAV:  13    -0.799274221165E+03   -0.12463E+00   -0.13078E+00  2104   0.968E-01    0.557E+00
DAV:  14    -0.799234663168E+03    0.39558E-01   -0.22306E-01  2176   0.862E-01    0.527E+00
DAV:  15    -0.799315706096E+03   -0.81043E-01   -0.17034E-01  1920   0.501E-01    0.730E+00
DAV:  16    -0.799265198140E+03    0.50508E-01   -0.64122E-02  1832   0.292E-01    0.810E+00
DAV:  17    -0.799231413992E+03    0.33784E-01   -0.27983E-01  1968   0.526E-01    0.691E+00
DAV:  18    -0.799254022174E+03   -0.22608E-01   -0.96552E-02  2064   0.335E-01    0.610E+00
DAV:  19    -0.799249794913E+03    0.42273E-02   -0.32044E-01  2120   0.417E-01    0.580E+00
DAV:  20    -0.799164280296E+03    0.85515E-01   -0.52601E-01  2064   0.819E-01    0.389E+00
DAV:  21    -0.799200251756E+03   -0.35971E-01   -0.10021E+00  1872   0.499E-01    0.530E+00
DAV:  22    -0.799212902894E+03   -0.12651E-01   -0.23302E-02  1808   0.269E-01    0.437E+00
DAV:  23    -0.799153398470E+03    0.59504E-01   -0.35401E-01  2032   0.538E-01    0.479E+00
DAV:  24    -0.799146313589E+03    0.70849E-02   -0.37421E-01  2048   0.619E-01    0.287E+00
DAV:  25    -0.799177626101E+03   -0.31313E-01   -0.36098E-01  2080   0.473E-01    0.475E+00
DAV:  26    -0.799260773863E+03   -0.83148E-01   -0.82932E-02  1944   0.333E-01    0.669E+00
DAV:  27    -0.799245374525E+03    0.15399E-01   -0.10736E-02  1880   0.173E-01    0.652E+00
DAV:  28    -0.799312501862E+03   -0.67127E-01   -0.73072E-02  2032   0.352E-01    0.410E+00
DAV:  29    -0.799367873635E+03   -0.55372E-01   -0.77314E-02  1976   0.324E-01    0.336E+00
DAV:  30    -0.799330573024E+03    0.37301E-01   -0.10073E-01  2016   0.227E-01    0.347E+00
DAV:  31    -0.799285057425E+03    0.45516E-01   -0.14979E-01  1912   0.225E-01    0.363E+00
DAV:  32    -0.799275495394E+03    0.95620E-02   -0.13799E-01  1944   0.335E-01    0.505E+00
DAV:  33    -0.799231332113E+03    0.44163E-01   -0.88942E-02  2128   0.328E-01    0.287E+00
DAV:  34    -0.799232708131E+03   -0.13760E-02   -0.82411E-02  1864   0.255E-01    0.318E+00
DAV:  35    -0.799220566926E+03    0.12141E-01   -0.11755E-01  1832   0.250E-01    0.219E+00
DAV:  36    -0.799247195809E+03   -0.26629E-01   -0.10377E-02  1808   0.178E-01    0.259E+00
DAV:  37    -0.799240276881E+03    0.69189E-02   -0.10336E-01  2112   0.201E-01    0.221E+00
DAV:  38    -0.799241007743E+03   -0.73086E-03   -0.25785E-02  1912   0.149E-01    0.206E+00
DAV:  39    -0.799247459874E+03   -0.64521E-02   -0.19923E-02  1976   0.101E-01    0.289E+00
DAV:  40    -0.799240648397E+03    0.68115E-02   -0.51561E-02  2112   0.181E-01    0.278E+00
DAV:  41    -0.799245086174E+03   -0.44378E-02   -0.77042E-03  1912   0.114E-01    0.316E+00
DAV:  42    -0.799239360182E+03    0.57260E-02   -0.92649E-04  1816   0.496E-02    0.305E+00
DAV:  43    -0.799232706432E+03    0.66538E-02   -0.39513E-03  2064   0.505E-02    0.267E+00
DAV:  44    -0.799240700373E+03   -0.79939E-02   -0.28199E-02  2048   0.175E-01    0.351E+00
DAV:  45    -0.799237591795E+03    0.31086E-02   -0.53591E-02  1792   0.229E-01    0.271E+00
DAV:  46    -0.799221847530E+03    0.15744E-01   -0.53621E-02  1848   0.195E-01    0.200E+00
DAV:  47    -0.799218177501E+03    0.36700E-02   -0.53719E-02  1976   0.148E-01    0.162E+00
DAV:  48    -0.799228781411E+03   -0.10604E-01   -0.10864E-02  1912   0.140E-01    0.155E+00
DAV:  49    -0.799230088674E+03   -0.13073E-02   -0.37198E-03  1976   0.924E-02    0.175E+00
DAV:  50    -0.799231403542E+03   -0.13149E-02   -0.57810E-03  1992   0.892E-02    0.227E+00
DAV:  51    -0.799229320528E+03    0.20830E-02   -0.57982E-03  1952   0.684E-02    0.232E+00
DAV:  52    -0.799230217725E+03   -0.89720E-03   -0.17665E-02  1896   0.753E-02    0.271E+00
DAV:  53    -0.799226234795E+03    0.39829E-02   -0.61861E-03  1816   0.665E-02    0.204E+00
DAV:  54    -0.799233591515E+03   -0.73567E-02   -0.13569E-02  1984   0.872E-02    0.167E+00
DAV:  55    -0.799241560920E+03   -0.79694E-02   -0.15796E-02  2048   0.882E-02    0.128E+00
DAV:  56    -0.799247929554E+03   -0.63686E-02   -0.68212E-03  2000   0.659E-02    0.102E+00
DAV:  57    -0.799252535072E+03   -0.46055E-02   -0.92818E-03  2032   0.796E-02    0.774E-01
DAV:  58    -0.799253255284E+03   -0.72021E-03   -0.11544E-03  1760   0.577E-02    0.743E-01
DAV:  59    -0.799253187518E+03    0.67766E-04   -0.32001E-03  2040   0.622E-02    0.834E-01
DAV:  60    -0.799252257297E+03    0.93022E-03   -0.25165E-03  1888   0.609E-02    0.607E-01
DAV:  61    -0.799251767749E+03    0.48955E-03   -0.72759E-04  2136   0.410E-02    0.533E-01
DAV:  62    -0.799251426375E+03    0.34137E-03   -0.89857E-04  2040   0.323E-02    0.580E-01
DAV:  63    -0.799250822879E+03    0.60350E-03   -0.19724E-04  1888   0.232E-02    0.569E-01
DAV:  64    -0.799249408078E+03    0.14148E-02   -0.68429E-04  2024   0.455E-02    0.505E-01
DAV:  65    -0.799248871282E+03    0.53680E-03   -0.10140E-03  1896   0.331E-02    0.516E-01
DAV:  66    -0.799247348257E+03    0.15230E-02   -0.11965E-03  2000   0.372E-02    0.473E-01
DAV:  67    -0.799245931157E+03    0.14171E-02   -0.28146E-03  2144   0.526E-02    0.476E-01
DAV:  68    -0.799246179741E+03   -0.24858E-03   -0.10614E-03  1912   0.329E-02    0.352E-01
DAV:  69    -0.799246869768E+03   -0.69003E-03   -0.79421E-04  1880   0.213E-02    0.343E-01
DAV:  70    -0.799246438629E+03    0.43114E-03   -0.58794E-04  1912   0.324E-02    0.141E-01
DAV:  71    -0.799246777125E+03   -0.33850E-03   -0.16287E-04  1872   0.177E-02    0.111E-01
DAV:  72    -0.799246833972E+03   -0.56847E-04   -0.16390E-04  1464   0.102E-02    0.990E-02
DAV:  73    -0.799246896592E+03   -0.62620E-04   -0.81653E-05  1360   0.854E-03    0.114E-01
DAV:  74    -0.799246701086E+03    0.19551E-03   -0.71454E-04  1720   0.304E-02    0.110E-01
DAV:  75    -0.799246800213E+03   -0.99127E-04   -0.16897E-04  1824   0.154E-02    0.850E-02
DAV:  76    -0.799246819587E+03   -0.19374E-04   -0.30926E-05  1208   0.836E-03    0.308E-02
DAV:  77    -0.799246841351E+03   -0.21764E-04   -0.23739E-05  1264   0.629E-03    0.647E-02
DAV:  78    -0.799246836993E+03    0.43583E-05   -0.71785E-06  1192   0.382E-03
   7 F= -.79924684E+03 E0= -.79922947E+03  d E =0.141203E+02  mag=    -0.3124
 BRION: g(F)=  0.184E+04 g(S)=  0.000E+00 retain N=  4 mean eig= 1.12
 eig:   4.172  0.005  0.144  0.144
 bond charge predicted
       N       E                     dE             d eps       ncg     rms          rms(c)
DAV:   1    -0.821435886491E+03   -0.22189E+02   -0.16766E+03  1712   0.468E+01    0.242E+01
DAV:   2    -0.849783699086E+03   -0.28348E+02   -0.39524E+02  2248   0.164E+01    0.355E+01
DAV:   3    -0.837273116053E+03    0.12511E+02   -0.11404E+02  2264   0.854E+00    0.276E+01
DAV:   4    -0.833029158798E+03    0.42440E+01   -0.98722E+01  2112   0.548E+00    0.174E+01
DAV:   5    -0.830208034001E+03    0.28211E+01   -0.16073E+01  2192   0.415E+00    0.195E+01
DAV:   6    -0.829276159406E+03    0.93187E+00   -0.26325E+01  2200   0.338E+00    0.154E+01
DAV:   7    -0.828430463972E+03    0.84570E+00   -0.23562E+01  2264   0.283E+00    0.125E+01
DAV:   8    -0.827778417072E+03    0.65205E+00   -0.93624E+00  2320   0.220E+00    0.769E+00
DAV:   9    -0.827652152727E+03    0.12626E+00   -0.73367E+00  2288   0.132E+00    0.565E+00
DAV:  10    -0.827384903245E+03    0.26725E+00   -0.28880E-01  2040   0.807E-01    0.479E+00
DAV:  11    -0.827466894320E+03   -0.81991E-01   -0.11824E+00  2016   0.567E-01    0.604E+00
DAV:  12    -0.827388314491E+03    0.78580E-01   -0.13154E-01  1840   0.319E-01    0.521E+00
DAV:  13    -0.827412918846E+03   -0.24604E-01   -0.53654E-01  1920   0.334E-01    0.552E+00
DAV:  14    -0.827455710427E+03   -0.42792E-01   -0.13355E-01  1984   0.347E-01    0.560E+00
DAV:  15    -0.827484611911E+03   -0.28901E-01   -0.33609E-02  2000   0.185E-01    0.568E+00
DAV:  16    -0.827450700162E+03    0.33912E-01   -0.39721E-02  1896   0.151E-01    0.530E+00
DAV:  17    -0.827511348327E+03   -0.60648E-01   -0.75869E-02  1912   0.215E-01    0.526E+00
DAV:  18    -0.827624921726E+03   -0.11357E+00   -0.61437E-01  1920   0.604E-01    0.555E+00
DAV:  19    -0.827601359360E+03    0.23562E-01   -0.40077E-02  1944   0.295E-01    0.553E+00
DAV:  20    -0.827597372207E+03    0.39872E-02   -0.11922E-03  2096   0.504E-02    0.555E+00
DAV:  21    -0.827526236159E+03    0.71136E-01   -0.75264E-01  1944   0.455E-01    0.535E+00
DAV:  22    -0.827609102091E+03   -0.82866E-01   -0.37755E-01  1976   0.539E-01    0.699E+00
DAV:  23    -0.827633842820E+03   -0.24741E-01   -0.31595E-01  2000   0.432E-01    0.698E+00
DAV:  24    -0.827720023508E+03   -0.86181E-01   -0.29473E-01  1984   0.547E-01    0.614E+00
DAV:  25    -0.827661402035E+03    0.58621E-01   -0.90685E-02  1864   0.328E-01    0.667E+00
DAV:  26    -0.827653721777E+03    0.76803E-02   -0.53872E-02  1872   0.191E-01    0.650E+00
DAV:  27    -0.827503076712E+03    0.15065E+00   -0.18393E-01  1936   0.286E-01    0.613E+00
DAV:  28    -0.827627316960E+03   -0.12424E+00   -0.42301E-01  1940   0.524E-01    0.651E+00
DAV:  29    -0.827724800789E+03   -0.97484E-01   -0.53635E-01  2024   0.699E-01    0.849E+00
DAV:  30    -0.827845649800E+03   -0.12085E+00   -0.19472E-01  1976   0.438E-01    0.825E+00
DAV:  31    -0.828094106552E+03   -0.24846E+00   -0.78616E-01  1928   0.523E-01    0.749E+00
DAV:  32    -0.827760544097E+03    0.33356E+00   -0.73815E+00  1904   0.128E+00    0.581E+00
DAV:  33    -0.827871242505E+03   -0.11070E+00   -0.50495E-01  1960   0.618E-01    0.621E+00
DAV:  34    -0.827838708687E+03    0.32534E-01   -0.61005E-02  2000   0.257E-01    0.638E+00
DAV:  35    -0.827801371830E+03    0.37337E-01   -0.47625E-02  2000   0.203E-01    0.683E+00
DAV:  36    -0.827625619213E+03    0.17575E+00   -0.31325E-01  2024   0.497E-01    0.783E+00
DAV:  37    -0.827785738699E+03   -0.16012E+00   -0.31848E-01  2012   0.709E-01    0.771E+00
DAV:  38    -0.827795381239E+03   -0.96425E-02   -0.38180E-02  2056   0.294E-01    0.751E+00
DAV:  39    -0.827778489290E+03    0.16892E-01   -0.11821E-02  2112   0.113E-01    0.716E+00
DAV:  40    -0.827708690130E+03    0.69799E-01   -0.82328E-02  2056   0.309E-01    0.500E+00
DAV:  41    -0.827714284124E+03   -0.55940E-02   -0.23901E-02  1856   0.242E-01    0.518E+00
DAV:  42    -0.827606246422E+03    0.10804E+00   -0.11022E-01  2152   0.435E-01    0.598E+00
DAV:  43    -0.827442510019E+03    0.16374E+00   -0.17258E-01  2024   0.543E-01    0.681E+00
DAV:  44    -0.827459382299E+03   -0.16872E-01   -0.17185E-02  2024   0.188E-01    0.714E+00
DAV:  45    -0.827438692727E+03    0.20690E-01   -0.22266E-02  2032   0.109E-01    0.754E+00
DAV:  46    -0.827372314967E+03    0.66378E-01   -0.55755E-02  2088   0.290E-01    0.731E+00
DAV:  47    -0.826935970777E+03    0.43634E+00   -0.75185E-01  2060   0.691E-01    0.911E+00
DAV:  48    -0.826968157327E+03   -0.32187E-01   -0.32017E-02  1848   0.293E-01    0.923E+00
DAV:  49    -0.826959204251E+03    0.89531E-02   -0.30828E-03  2024   0.111E-01    0.877E+00
DAV:  50    -0.827269652210E+03   -0.31045E+00   -0.10350E+00  2056   0.773E-01    0.667E+00
DAV:  51    -0.827791732318E+03   -0.52208E+00   -0.29690E+00  2120   0.121E+00    0.641E+00
DAV:  52    -0.828194970959E+03   -0.40324E+00   -0.15805E+00  2080   0.952E-01    0.781E+00
DAV:  53    -0.828117035029E+03    0.77936E-01   -0.65962E-01  2136   0.810E-01    0.610E+00
DAV:  54    -0.828187607712E+03   -0.70573E-01   -0.76990E-02  1992   0.434E-01    0.637E+00
DAV:  55    -0.828196805112E+03   -0.91974E-02   -0.75178E-03  2056   0.138E-01    0.642E+00
DAV:  56    -0.828196094279E+03    0.71083E-03   -0.56749E-03  2152   0.707E-02    0.651E+00
DAV:  57    -0.828265772428E+03   -0.69678E-01   -0.14393E-01  1904   0.308E-01    0.638E+00
DAV:  58    -0.828358142955E+03   -0.92371E-01   -0.16489E-01  1984   0.312E-01    0.688E+00
DAV:  59    -0.828380739434E+03   -0.22596E-01   -0.12821E-02  2032   0.150E-01    0.712E+00
DAV:  60    -0.828376260527E+03    0.44789E-02   -0.17783E-02  1952   0.141E-01    0.689E+00
DAV:  61    -0.828369957820E+03    0.63027E-02   -0.18514E-03  1832   0.457E-02    0.689E+00
DAV:  62    -0.828287776829E+03    0.82181E-01   -0.11242E-01  1960   0.375E-01    0.663E+00
DAV:  63    -0.828185106470E+03    0.10267E+00   -0.90407E-02  2136   0.346E-01    0.613E+00
DAV:  64    -0.828087381781E+03    0.97725E-01   -0.60842E-02  2176   0.406E-01    0.594E+00
DAV:  65    -0.828059250713E+03    0.28131E-01   -0.39901E-02  2176   0.393E-01    0.581E+00
DAV:  66    -0.828015114750E+03    0.44136E-01   -0.57532E-02  2256   0.419E-01    0.545E+00
DAV:  67    -0.827893230229E+03    0.12188E+00   -0.25301E-01  2288   0.869E-01    0.534E+00
DAV:  68    -0.827899375203E+03   -0.61450E-02   -0.41555E-02  1856   0.304E-01    0.540E+00
DAV:  69    -0.827897920359E+03    0.14548E-02   -0.10525E-03  2096   0.432E-02    0.536E+00
DAV:  70    -0.827906924095E+03   -0.90037E-02   -0.24647E-02  2072   0.980E-02    0.567E+00
DAV:  71    -0.827913107168E+03   -0.61831E-02   -0.15279E-02  1944   0.111E-01    0.555E+00
DAV:  72    -0.827934304000E+03   -0.21197E-01   -0.47590E-02  2072   0.293E-01    0.514E+00
DAV:  73    -0.827943553326E+03   -0.92493E-02   -0.15383E-02  1856   0.118E-01    0.530E+00
DAV:  74    -0.827938808288E+03    0.47450E-02   -0.40064E-03  2064   0.931E-02    0.544E+00
DAV:  75    -0.827904645222E+03    0.34163E-01   -0.22358E-02  2032   0.173E-01    0.520E+00
DAV:  76    -0.827880607994E+03    0.24037E-01   -0.37033E-02  2112   0.255E-01    0.495E+00
DAV:  77    -0.827990497035E+03   -0.10989E+00   -0.17915E+00  2096   0.525E-01    0.953E+00
DAV:  78    -0.828068521844E+03   -0.78025E-01   -0.27387E-01  1768   0.420E-01    0.798E+00
DAV:  79    -0.828084512335E+03   -0.15990E-01   -0.79287E-02  1912   0.235E-01    0.676E+00
DAV:  80    -0.828197488167E+03   -0.11298E+00   -0.10175E-01  1952   0.232E-01    0.809E+00
DAV:  81    -0.828199436541E+03   -0.19484E-02   -0.54880E-03  1856   0.109E-01    0.798E+00
DAV:  82    -0.828242362744E+03   -0.42926E-01   -0.21727E-02  2008   0.173E-01    0.743E+00
DAV:  83    -0.828312228003E+03   -0.69865E-01   -0.35538E-02  2072   0.172E-01    0.856E+00
DAV:  84    -0.828299298470E+03    0.12930E-01   -0.10808E-02  1920   0.150E-01    0.908E+00
DAV:  85    -0.828296235858E+03    0.30626E-02   -0.36460E-02  2112   0.254E-01    0.935E+00
DAV:  86    -0.828286808214E+03    0.94276E-02   -0.33913E-03  1872   0.938E-02    0.940E+00
DAV:  87    -0.828278431449E+03    0.83768E-02   -0.39709E-03  2288   0.920E-02    0.945E+00
DAV:  88    -0.828274466288E+03    0.39652E-02   -0.47746E-04  1896   0.337E-02    0.941E+00
DAV:  89    -0.828275114514E+03   -0.64823E-03   -0.80196E-06  1528   0.460E-03    0.943E+00
DAV:  90    -0.828272693551E+03    0.24210E-02   -0.34668E-03  1976   0.910E-02    0.950E+00
DAV:  91    -0.828253391319E+03    0.19302E-01   -0.55561E-03  2144   0.132E-01    0.909E+00
DAV:  92    -0.828225855570E+03    0.27536E-01   -0.11097E+00  1928   0.631E-01    0.778E+00
DAV:  93    -0.828253731909E+03   -0.27876E-01   -0.24504E-02  1824   0.295E-01    0.737E+00
DAV:  94    -0.828282279827E+03   -0.28548E-01   -0.34560E-02  2288   0.218E-01    0.645E+00
DAV:  95    -0.828286462782E+03   -0.41830E-02   -0.43725E-02  1952   0.236E-01    0.675E+00
DAV:  96    -0.828365822063E+03   -0.79359E-01   -0.39745E-02  2104   0.328E-01    0.718E+00
DAV:  97    -0.828263512234E+03    0.10231E+00   -0.68671E-02  2120   0.485E-01    0.720E+00
DAV:  98    -0.828237926950E+03    0.25585E-01   -0.27324E-02  2048   0.226E-01    0.693E+00
DAV:  99    -0.828235644690E+03    0.22823E-02   -0.12337E-02  1968   0.122E-01    0.622E+00
DAV: 100    -0.828216931354E+03    0.18713E-01   -0.10307E-02  2128   0.183E-01
   8 F= -.82821693E+03 E0= -.82819905E+03  d E =-.289701E+02  mag=    -0.9397
 BRION: g(F)=  0.266E+02 g(S)=  0.000E+00 retain N=  2 mean eig= 2.61
 eig:   0.049  5.170
 bond charge predicted
       N       E                     dE             d eps       ncg     rms          rms(c)
DAV:   1    -0.822384794425E+03    0.58509E+01   -0.29304E+03  1712   0.850E+01    0.235E+01
DAV:   2    -0.845889623010E+03   -0.23505E+02   -0.36643E+02  2264   0.202E+01    0.300E+01
DAV:   3    -0.838814671201E+03    0.70750E+01   -0.10574E+02  2168   0.709E+00    0.222E+01
DAV:   4    -0.833332650035E+03    0.54820E+01   -0.20446E+01  2192   0.585E+00    0.145E+01
DAV:   5    -0.832332370551E+03    0.10003E+01   -0.10903E+01  2064   0.231E+00    0.117E+01
DAV:   6    -0.831382910476E+03    0.94946E+00   -0.66106E-01  2224   0.152E+00    0.850E+00
DAV:   7    -0.831223568525E+03    0.15934E+00   -0.58877E+00  2144   0.188E+00    0.137E+01
DAV:   8    -0.831084872675E+03    0.13870E+00   -0.13365E+01  2336   0.203E+00    0.103E+01
DAV:   9    -0.831074746227E+03    0.10126E-01   -0.10636E+01  2152   0.150E+00    0.111E+01
DAV:  10    -0.830807881033E+03    0.26687E+00   -0.47073E+00  2000   0.856E-01    0.112E+01
DAV:  11    -0.830960012435E+03   -0.15213E+00   -0.53020E+00  1992   0.643E-01    0.940E+00
DAV:  12    -0.830957703145E+03    0.23093E-02   -0.39914E-02  1832   0.310E-01    0.939E+00
DAV:  13    -0.830982346411E+03   -0.24643E-01   -0.31184E-01  2024   0.246E-01    0.907E+00
DAV:  14    -0.830966682551E+03    0.15664E-01   -0.84309E-03  1944   0.154E-01    0.895E+00
DAV:  15    -0.830895163282E+03    0.71519E-01   -0.34273E-01  2000   0.799E-01    0.749E+00
DAV:  16    -0.830931419278E+03   -0.36256E-01   -0.39123E-02  2000   0.263E-01    0.758E+00
DAV:  17    -0.830973954630E+03   -0.42535E-01   -0.20216E-01  2032   0.320E-01    0.747E+00
DAV:  18    -0.830989308339E+03   -0.15354E-01   -0.30920E-02  1896   0.297E-01    0.654E+00
DAV:  19    -0.830691701726E+03    0.29761E+00   -0.12155E+00  2096   0.147E+00    0.779E+00
DAV:  20    -0.830792858554E+03   -0.10116E+00   -0.19266E-01  1992   0.550E-01    0.850E+00
DAV:  21    -0.830569659926E+03    0.22320E+00   -0.64306E-02  2016   0.503E-01    0.911E+00
DAV:  22    -0.830542954416E+03    0.26706E-01   -0.20037E-02  2104   0.206E-01    0.870E+00
DAV:  23    -0.830624055912E+03   -0.81101E-01   -0.74751E-01  2032   0.824E-01    0.737E+00
DAV:  24    -0.830709704785E+03   -0.85649E-01   -0.21426E-01  2048   0.666E-01    0.503E+00
DAV:  25    -0.830805127392E+03   -0.95423E-01   -0.63183E-02  1968   0.312E-01    0.580E+00
DAV:  26    -0.830825175492E+03   -0.20048E-01   -0.14871E+00  1968   0.452E-01    0.821E+00
DAV:  27    -0.830802126977E+03    0.23049E-01   -0.55382E-02  1792   0.322E-01    0.679E+00
DAV:  28    -0.830797307650E+03    0.48193E-02   -0.40200E-03  1928   0.640E-02    0.714E+00
DAV:  29    -0.830815203678E+03   -0.17896E-01   -0.26659E-02  1912   0.175E-01    0.800E+00
DAV:  30    -0.830795184429E+03    0.20019E-01   -0.56617E-03  1800   0.113E-01    0.779E+00
DAV:  31    -0.830782548314E+03    0.12636E-01   -0.13150E-02  1944   0.121E-01    0.713E+00
DAV:  32    -0.830828684114E+03   -0.46136E-01   -0.81497E-02  1944   0.281E-01    0.663E+00
DAV:  33    -0.830828690806E+03   -0.66916E-05   -0.62645E-03  1840   0.104E-01    0.640E+00
DAV:  34    -0.830843918174E+03   -0.15227E-01   -0.10944E-02  2080   0.787E-02    0.594E+00
DAV:  35    -0.830859161946E+03   -0.15244E-01   -0.38752E-02  1944   0.161E-01    0.469E+00
DAV:  36    -0.830872124125E+03   -0.12962E-01   -0.14073E-01  2048   0.397E-01    0.415E+00
DAV:  37    -0.830895518487E+03   -0.23394E-01   -0.12503E-01  1840   0.271E-01    0.459E+00
DAV:  38    -0.830864919452E+03    0.30599E-01   -0.38729E-02  1840   0.164E-01    0.453E+00
DAV:  39    -0.830870741571E+03   -0.58221E-02   -0.69032E-03  1904   0.841E-02    0.469E+00
DAV:  40    -0.830806458627E+03    0.64283E-01   -0.13400E-01  1944   0.261E-01    0.383E+00
DAV:  41    -0.830814845420E+03   -0.83868E-02   -0.85977E-02  1872   0.176E-01    0.347E+00
DAV:  42    -0.830817074861E+03   -0.22294E-02   -0.17020E-01  1976   0.185E-01    0.285E+00
DAV:  43    -0.830839104864E+03   -0.22030E-01   -0.64537E-02  1880   0.216E-01    0.401E+00
DAV:  44    -0.830834855967E+03    0.42489E-02   -0.76059E-02  1952   0.223E-01    0.363E+00
DAV:  45    -0.830825109902E+03    0.97461E-02   -0.42790E-02  1816   0.175E-01    0.271E+00
DAV:  46    -0.830838482398E+03   -0.13372E-01   -0.44308E-02  2056   0.190E-01    0.254E+00
DAV:  47    -0.830855328712E+03   -0.16846E-01   -0.31465E-02  1912   0.175E-01    0.316E+00
DAV:  48    -0.830853702471E+03    0.16262E-02   -0.26815E-03  1784   0.102E-01    0.326E+00
DAV:  49    -0.830852364225E+03    0.13382E-02   -0.44570E-02  1976   0.117E-01    0.351E+00
DAV:  50    -0.830863530585E+03   -0.11166E-01   -0.21268E-02  1744   0.144E-01    0.310E+00
DAV:  51    -0.830861943952E+03    0.15866E-02   -0.19915E-02  1784   0.967E-02    0.384E+00
DAV:  52    -0.830830304988E+03    0.31639E-01   -0.13631E-01  1936   0.240E-01    0.262E+00
DAV:  53    -0.830844006883E+03   -0.13702E-01   -0.22504E-02  1832   0.195E-01    0.204E+00
DAV:  54    -0.830842850295E+03    0.11566E-02   -0.23433E-02  2024   0.138E-01    0.181E+00
DAV:  55    -0.830844557652E+03   -0.17074E-02   -0.13774E-02  1992   0.140E-01    0.154E+00
DAV:  56    -0.830842569760E+03    0.19879E-02   -0.25514E-02  1904   0.119E-01    0.110E+00
DAV:  57    -0.830852125169E+03   -0.95554E-02   -0.25666E-02  1880   0.109E-01    0.255E+00
DAV:  58    -0.830841748897E+03    0.10376E-01   -0.32404E-02  1784   0.120E-01    0.251E+00
DAV:  59    -0.830839156928E+03    0.25920E-02   -0.71099E-03  1792   0.931E-02    0.200E+00
DAV:  60    -0.830843627419E+03   -0.44705E-02   -0.17049E-02  1984   0.682E-02    0.201E+00
DAV:  61    -0.830848135580E+03   -0.45082E-02   -0.32673E-03  1808   0.717E-02    0.224E+00
DAV:  62    -0.830867191162E+03   -0.19056E-01   -0.14532E-01  1968   0.161E-01    0.378E+00
DAV:  63    -0.830858210417E+03    0.89807E-02   -0.24086E-02  1776   0.122E-01    0.405E+00
DAV:  64    -0.830845455224E+03    0.12755E-01   -0.76553E-03  1808   0.600E-02    0.364E+00
DAV:  65    -0.830844686735E+03    0.76849E-03   -0.40577E-03  1880   0.521E-02    0.327E+00
DAV:  66    -0.830846169382E+03   -0.14826E-02   -0.16143E-02  1840   0.115E-01    0.349E+00
DAV:  67    -0.830838291131E+03    0.78783E-02   -0.49764E-02  1904   0.151E-01    0.344E+00
DAV:  68    -0.830841860569E+03   -0.35694E-02   -0.20966E-02  1872   0.116E-01    0.410E+00
DAV:  69    -0.830842444098E+03   -0.58353E-03   -0.73110E-03  1840   0.843E-02    0.454E+00
DAV:  70    -0.830835901494E+03    0.65426E-02   -0.15735E-02  1896   0.740E-02    0.394E+00
DAV:  71    -0.830837576748E+03   -0.16753E-02   -0.14902E-03  1824   0.642E-02    0.366E+00
DAV:  72    -0.830837575628E+03    0.11201E-05   -0.33055E-02  1976   0.102E-01    0.283E+00
DAV:  73    -0.830846716210E+03   -0.91406E-02   -0.23718E-02  1824   0.111E-01    0.224E+00
DAV:  74    -0.830861170838E+03   -0.14455E-01   -0.43911E-02  1928   0.867E-02    0.270E+00
DAV:  75    -0.830863234345E+03   -0.20635E-02   -0.55862E-03  1784   0.759E-02    0.281E+00
DAV:  76    -0.830860845029E+03    0.23893E-02   -0.26220E-04  1920   0.269E-02    0.281E+00
DAV:  77    -0.830856540533E+03    0.43045E-02   -0.23486E-02  1896   0.649E-02    0.258E+00
DAV:  78    -0.830864604812E+03   -0.80643E-02   -0.59447E-02  1776   0.961E-02    0.332E+00
DAV:  79    -0.830865585254E+03   -0.98044E-03   -0.27509E-03  1736   0.593E-02    0.348E+00
DAV:  80    -0.830864626216E+03    0.95904E-03   -0.66846E-04  1792   0.280E-02    0.354E+00
DAV:  81    -0.830863956026E+03    0.67019E-03   -0.42637E-05  1672   0.132E-02    0.354E+00
DAV:  82    -0.830857546510E+03    0.64095E-02   -0.64783E-03  1920   0.527E-02    0.315E+00
DAV:  83    -0.830859564898E+03   -0.20184E-02   -0.43910E-04  1720   0.371E-02    0.309E+00
DAV:  84    -0.830860192321E+03   -0.62742E-03   -0.35415E-05  1552   0.924E-03    0.310E+00
DAV:  85    -0.830855967327E+03    0.42250E-02   -0.29904E-03  1896   0.355E-02    0.288E+00
DAV:  86    -0.830853310049E+03    0.26573E-02   -0.26862E-03  1936   0.592E-02    0.266E+00
DAV:  87    -0.830849216585E+03    0.40935E-02   -0.79751E-02  1944   0.999E-02    0.238E+00
DAV:  88    -0.830850255809E+03   -0.10392E-02   -0.11040E-02  1872   0.110E-01    0.232E+00
DAV:  89    -0.830853322208E+03   -0.30664E-02   -0.16812E-03  1840   0.576E-02    0.231E+00
DAV:  90    -0.830853281882E+03    0.40327E-04   -0.33500E-04  1896   0.216E-02    0.235E+00
DAV:  91    -0.830852778436E+03    0.50345E-03   -0.78716E-04  1728   0.153E-02    0.237E+00
DAV:  92    -0.830866939249E+03   -0.14161E-01   -0.70354E-02  1888   0.216E-01    0.337E+00
DAV:  93    -0.830862676978E+03    0.42623E-02   -0.24987E-02  1800   0.133E-01    0.298E+00
DAV:  94    -0.830865320735E+03   -0.26438E-02   -0.35453E-03  1888   0.723E-02    0.281E+00
DAV:  95    -0.830867904984E+03   -0.25842E-02   -0.10035E-03  1952   0.358E-02    0.290E+00
DAV:  96    -0.830867772213E+03    0.13277E-03   -0.13707E-04  1712   0.203E-02    0.292E+00
DAV:  97    -0.830863244222E+03    0.45280E-02   -0.51210E-03  1896   0.692E-02    0.269E+00
DAV:  98    -0.830864506344E+03   -0.12621E-02   -0.62492E-04  1744   0.446E-02    0.272E+00
DAV:  99    -0.830863112547E+03    0.13938E-02   -0.41042E-04  1984   0.249E-02    0.273E+00
DAV: 100    -0.830869365865E+03   -0.62533E-02   -0.24968E-03  1888   0.476E-02
   9 F= -.83086937E+03 E0= -.83083924E+03  d E =-.265243E+01  mag=    -1.2634
 BRION: g(F)=  0.550E+02 g(S)=  0.000E+00 retain N=  3 mean eig= 2.20
 eig:   6.255  0.045  0.291
 bond charge predicted
       N       E                     dE             d eps       ncg     rms          rms(c)
DAV:   1    -0.835383096705E+03   -0.45200E+01   -0.99157E+02  1744   0.520E+01    0.988E+00
DAV:   2    -0.839801200273E+03   -0.44181E+01   -0.67524E+01  2168   0.111E+01    0.164E+01
DAV:   3    -0.837978431198E+03    0.18228E+01   -0.70694E+00  2160   0.359E+00    0.931E+00
DAV:   4    -0.837312414103E+03    0.66602E+00   -0.20953E+00  2072   0.231E+00    0.784E+00
DAV:   5    -0.837054828346E+03    0.25759E+00   -0.15186E+00  2008   0.143E+00    0.868E+00
DAV:   6    -0.836871830594E+03    0.18300E+00   -0.24852E+00  2080   0.145E+00    0.738E+00
DAV:   7    -0.836654934239E+03    0.21690E+00   -0.37248E-01  2048   0.129E+00    0.694E+00
DAV:   8    -0.836599009240E+03    0.55925E-01   -0.22877E-01  2016   0.698E-01    0.403E+00
DAV:   9    -0.836648448671E+03   -0.49439E-01   -0.51953E-01  2040   0.113E+00    0.711E+00
DAV:  10    -0.836620354946E+03    0.28094E-01   -0.13882E-01  2008   0.698E-01    0.652E+00
DAV:  11    -0.836692627260E+03   -0.72272E-01   -0.16442E+00  2384   0.851E-01    0.611E+00
DAV:  12    -0.836740242195E+03   -0.47615E-01   -0.82277E-02  1856   0.539E-01    0.562E+00
DAV:  13    -0.836748478717E+03   -0.82365E-02   -0.46896E-02  1904   0.315E-01    0.451E+00
DAV:  14    -0.836810422760E+03   -0.61944E-01   -0.49340E-01  2248   0.681E-01    0.364E+00
DAV:  15    -0.836833688271E+03   -0.23266E-01   -0.47375E-02  2024   0.463E-01    0.257E+00
DAV:  16    -0.836833895205E+03   -0.20693E-03   -0.69008E-02  2184   0.327E-01    0.119E+00
DAV:  17    -0.836860288091E+03   -0.26393E-01   -0.53426E-02  1968   0.282E-01    0.171E+00
DAV:  18    -0.836859531597E+03    0.75649E-03   -0.69311E-02  1976   0.252E-01    0.799E-01
DAV:  19    -0.836869787698E+03   -0.10256E-01   -0.81539E-03  1984   0.156E-01    0.840E-01
DAV:  20    -0.836870540286E+03   -0.75259E-03   -0.10612E-02  1984   0.158E-01    0.371E-01
DAV:  21    -0.836874044390E+03   -0.35041E-02   -0.47846E-03  2016   0.114E-01    0.447E-01
DAV:  22    -0.836874137229E+03   -0.92839E-04   -0.29544E-03  2040   0.597E-02    0.234E-01
DAV:  23    -0.836874600237E+03   -0.46301E-03   -0.64073E-04  1944   0.336E-02    0.267E-01
DAV:  24    -0.836874887705E+03   -0.28747E-03   -0.61437E-04  2008   0.312E-02    0.149E-01
DAV:  25    -0.836875163369E+03   -0.27566E-03   -0.20537E-04  1840   0.336E-02    0.107E-01
DAV:  26    -0.836875335879E+03   -0.17251E-03   -0.12204E-04  1928   0.188E-02    0.115E-01
DAV:  27    -0.836875384839E+03   -0.48960E-04   -0.45053E-05  1584   0.125E-02    0.756E-02
DAV:  28    -0.836875453255E+03   -0.68416E-04   -0.33647E-05  1608   0.937E-03    0.402E-02
DAV:  29    -0.836875522653E+03   -0.69398E-04   -0.20819E-05  1456   0.730E-03    0.234E-02
DAV:  30    -0.836875562413E+03   -0.39760E-04   -0.11950E-05  1448   0.528E-03    0.265E-02
DAV:  31    -0.836875579135E+03   -0.16722E-04   -0.44545E-06  1464   0.404E-03    0.157E-02
DAV:  32    -0.836875588137E+03   -0.90022E-05   -0.20396E-06  1400   0.261E-03
  10 F= -.83687559E+03 E0= -.83685395E+03  d E =-.600622E+01  mag=    -3.7031
 BRION: g(F)=  0.185E+02 g(S)=  0.000E+00 retain N=  3 mean eig= 1.40
 eig:   3.920  0.076  0.194
 bond charge predicted
       N       E                     dE             d eps       ncg     rms          rms(c)
DAV:   1    -0.840176251626E+03   -0.33007E+01   -0.54703E+02  1712   0.365E+01    0.911E+00
DAV:   2    -0.842159385107E+03   -0.19831E+01   -0.29560E+01  2024   0.760E+00    0.161E+01
DAV:   3    -0.841513829120E+03    0.64556E+00   -0.80254E+00  2060   0.294E+00    0.822E+00
DAV:   4    -0.841221905037E+03    0.29192E+00   -0.11017E+00  2024   0.167E+00    0.544E+00
DAV:   5    -0.841151044658E+03    0.70860E-01   -0.80620E-01  2064   0.135E+00    0.794E+00
DAV:   6    -0.841042181062E+03    0.10886E+00   -0.24485E-01  2064   0.947E-01    0.344E+00
DAV:   7    -0.841049602056E+03   -0.74210E-02   -0.53241E-01  2032   0.805E-01    0.377E+00
DAV:   8    -0.841045220955E+03    0.43811E-02   -0.15322E-01  2232   0.807E-01    0.467E+00
DAV:   9    -0.841028934254E+03    0.16287E-01   -0.76213E-02  2048   0.718E-01    0.421E+00
DAV:  10    -0.841005069132E+03    0.23865E-01   -0.18465E-01  2048   0.448E-01    0.203E+00
DAV:  11    -0.841010895439E+03   -0.58263E-02   -0.16378E-02  2048   0.268E-01    0.154E+00
DAV:  12    -0.841012269404E+03   -0.13740E-02   -0.14295E-02  1904   0.213E-01    0.779E-01
DAV:  13    -0.841012548941E+03   -0.27954E-03   -0.37266E-03  2152   0.171E-01    0.591E-01
DAV:  14    -0.841013205189E+03   -0.65625E-03   -0.19289E-03  2048   0.891E-02    0.509E-01
DAV:  15    -0.841013573143E+03   -0.36795E-03   -0.94194E-04  2088   0.105E-01    0.701E-01
DAV:  16    -0.841012696307E+03    0.87684E-03   -0.27918E-03  2352   0.165E-01    0.483E-01
DAV:  17    -0.841013071048E+03   -0.37474E-03   -0.17013E-03  2088   0.964E-02    0.315E-01
DAV:  18    -0.841013048583E+03    0.22465E-04   -0.43207E-04  2016   0.525E-02    0.177E-01
DAV:  19    -0.841013264357E+03   -0.21577E-03   -0.14092E-04  1968   0.292E-02    0.117E-01
DAV:  20    -0.841013389391E+03   -0.12503E-03   -0.11338E-04  1712   0.254E-02    0.468E-02
DAV:  21    -0.841013468023E+03   -0.78632E-04   -0.50737E-05  1808   0.173E-02    0.354E-02
DAV:  22    -0.841013488927E+03   -0.20904E-04   -0.10967E-05  1416   0.751E-03    0.311E-02
DAV:  23    -0.841013503171E+03   -0.14244E-04   -0.42828E-06  1400   0.466E-03    0.190E-02
DAV:  24    -0.841013512530E+03   -0.93594E-05   -0.35696E-06  1400   0.363E-03
  11 F= -.84101351E+03 E0= -.84099586E+03  d E =-.413792E+01  mag=    -3.0450
 BRION: g(F)=  0.764E+01 g(S)=  0.000E+00 retain N=  2 mean eig= 0.46
 eig:   0.131  0.788
 bond charge predicted
       N       E                     dE             d eps       ncg     rms          rms(c)
DAV:   1    -0.842478543265E+03   -0.14650E+01   -0.52953E+02  1712   0.364E+01    0.667E+00
DAV:   2    -0.843463696183E+03   -0.98515E+00   -0.17504E+01  2064   0.701E+00    0.991E+00
DAV:   3    -0.843607527701E+03   -0.14383E+00   -0.10762E+01  2064   0.199E+00    0.532E+00
DAV:   4    -0.843326420009E+03    0.28111E+00   -0.27614E-01  2000   0.115E+00    0.357E+00
DAV:   5    -0.843201797504E+03    0.12462E+00   -0.14931E+00  2152   0.142E+00    0.597E+00
DAV:   6    -0.843151272931E+03    0.50525E-01   -0.35733E-01  1992   0.719E-01    0.410E+00
DAV:   7    -0.843120083147E+03    0.31190E-01   -0.15195E-01  2040   0.606E-01    0.113E+00
DAV:   8    -0.843188212210E+03   -0.68129E-01   -0.26088E-01  1992   0.394E-01    0.347E+00
DAV:   9    -0.843152074416E+03    0.36138E-01   -0.15637E-02  1888   0.190E-01    0.309E+00
DAV:  10    -0.843136167016E+03    0.15907E-01   -0.55881E-03  2080   0.634E-02    0.287E+00
DAV:  11    -0.843138399747E+03   -0.22327E-02   -0.24684E-04  1832   0.282E-02    0.288E+00
DAV:  12    -0.843139807247E+03   -0.14075E-02   -0.12985E-03  2072   0.674E-02    0.337E+00
DAV:  13    -0.843183215885E+03   -0.43409E-01   -0.69602E-02  1952   0.485E-01    0.392E+00
DAV:  14    -0.843176525041E+03    0.66908E-02   -0.72727E-03  1952   0.135E-01    0.397E+00
DAV:  15    -0.843175206749E+03    0.13183E-02   -0.17836E-04  2304   0.220E-02    0.398E+00
DAV:  16    -0.843175704352E+03   -0.49760E-03   -0.58788E-04  1944   0.280E-02    0.401E+00
DAV:  17    -0.843182659995E+03   -0.69556E-02   -0.48996E-03  2072   0.148E-01    0.380E+00
DAV:  18    -0.843401546519E+03   -0.21889E+00   -0.17901E+00  2088   0.191E+00    0.546E+00
DAV:  19    -0.843389412756E+03    0.12134E-01   -0.13153E-01  2056   0.609E-01    0.555E+00
DAV:  20    -0.843333832275E+03    0.55580E-01   -0.39102E-02  1992   0.382E-01    0.519E+00
DAV:  21    -0.843210494118E+03    0.12334E+00   -0.24410E-01  1920   0.982E-01    0.405E+00
DAV:  22    -0.843179366406E+03    0.31128E-01   -0.51649E-01  2024   0.883E-01    0.179E+00
DAV:  23    -0.843198882971E+03   -0.19517E-01   -0.47028E-02  1928   0.412E-01    0.136E+00
DAV:  24    -0.843198057393E+03    0.82558E-03   -0.46615E-03  2056   0.120E-01    0.759E-01
DAV:  25    -0.843199659879E+03   -0.16025E-02   -0.11888E-02  1992   0.990E-02    0.615E-01
DAV:  26    -0.843200786924E+03   -0.11270E-02   -0.18442E-03  1984   0.109E-01    0.479E-01
DAV:  27    -0.843201126118E+03   -0.33919E-03   -0.16324E-03  2152   0.110E-01    0.408E-01
DAV:  28    -0.843200854208E+03    0.27191E-03   -0.82606E-04  2024   0.561E-02    0.260E-01
DAV:  29    -0.843200758811E+03    0.95396E-04   -0.53318E-04  1984   0.354E-02    0.136E-01
DAV:  30    -0.843200819886E+03   -0.61074E-04   -0.98320E-04  1968   0.413E-02    0.561E-02
DAV:  31    -0.843200854485E+03   -0.34599E-04   -0.57269E-05  1920   0.162E-02    0.305E-02
DAV:  32    -0.843200860783E+03   -0.62986E-05   -0.25435E-05  1488   0.776E-03
  12 F= -.84320086E+03 E0= -.84318425E+03  d E =-.218735E+01  mag=    -1.9236
 BRION: g(F)=  0.902E+01 g(S)=  0.000E+00 retain N=  3 mean eig= 0.70
 eig:   1.725  0.187  0.187
 bond charge predicted
       N       E                     dE             d eps       ncg     rms          rms(c)
DAV:   1    -0.844956707109E+03   -0.17559E+01   -0.21620E+02  1712   0.237E+01    0.466E+00
DAV:   2    -0.845276829917E+03   -0.32012E+00   -0.79253E+00  2056   0.453E+00    0.273E+00
DAV:   3    -0.845216045755E+03    0.60784E-01   -0.46472E-01  2040   0.122E+00    0.191E+00
DAV:   4    -0.845197148896E+03    0.18897E-01   -0.23927E-01  2056   0.715E-01    0.183E+00
DAV:   5    -0.845173629189E+03    0.23520E-01   -0.12643E-01  2024   0.581E-01    0.104E+00
DAV:   6    -0.845178140223E+03   -0.45110E-02   -0.14313E-01  2192   0.491E-01    0.302E+00
DAV:   7    -0.845162642423E+03    0.15498E-01   -0.49457E-02  1936   0.287E-01    0.137E+00
DAV:   8    -0.845161884691E+03    0.75773E-03   -0.20093E-02  2152   0.250E-01    0.323E-01
DAV:   9    -0.845165464044E+03   -0.35794E-02   -0.33511E-03  2016   0.178E-01    0.105E-01
DAV:  10    -0.845165125160E+03    0.33888E-03   -0.14647E-03  2256   0.129E-01    0.834E-02
DAV:  11    -0.845164989956E+03    0.13520E-03   -0.51993E-04  2096   0.109E-01    0.536E-02
DAV:  12    -0.845165082147E+03   -0.92191E-04   -0.65858E-04  2096   0.703E-02    0.103E-01
DAV:  13    -0.845165100732E+03   -0.18585E-04   -0.16046E-04  2008   0.287E-02    0.289E-02
DAV:  14    -0.845165176242E+03   -0.75511E-04   -0.65527E-05  1832   0.266E-02    0.216E-02
DAV:  15    -0.845165211680E+03   -0.35438E-04   -0.32335E-05  1768   0.136E-02    0.129E-02
DAV:  16    -0.845165238406E+03   -0.26725E-04   -0.13436E-05  1360   0.102E-02    0.122E-02
DAV:  17    -0.845165254120E+03   -0.15714E-04   -0.74669E-06  1392   0.718E-03    0.924E-03
DAV:  18    -0.845165259330E+03   -0.52103E-05   -0.34956E-06  1472   0.372E-03
  13 F= -.84516526E+03 E0= -.84515633E+03  d E =-.196440E+01  mag=    -2.0001
 BRION: g(F)=  0.524E+01 g(S)=  0.000E+00 retain N=  4 mean eig= 2.13
 eig:   7.458  0.792  0.015  0.252
 bond charge predicted
       N       E                     dE             d eps       ncg     rms          rms(c)
DAV:   1    -0.846408117153E+03   -0.12429E+01   -0.71122E+01  1712   0.131E+01    0.190E+00
DAV:   2    -0.846557513156E+03   -0.14940E+00   -0.19529E+00  2032   0.204E+00    0.203E+00
DAV:   3    -0.846547899503E+03    0.96137E-02   -0.14461E-01  2064   0.499E-01    0.114E+00
DAV:   4    -0.846536581326E+03    0.11318E-01   -0.27967E-02  2048   0.295E-01    0.612E-01
DAV:   5    -0.846528899956E+03    0.76814E-02   -0.16974E-02  2160   0.303E-01    0.276E-01
DAV:   6    -0.846527635362E+03    0.12646E-02   -0.80326E-03  2112   0.241E-01    0.233E-01
DAV:   7    -0.846527690612E+03   -0.55250E-04   -0.55936E-03  2032   0.136E-01    0.182E-01
DAV:   8    -0.846527329739E+03    0.36087E-03   -0.13876E-03  2072   0.642E-02    0.810E-02
DAV:   9    -0.846526981099E+03    0.34864E-03   -0.47794E-04  2048   0.759E-02    0.392E-02
DAV:  10    -0.846526872084E+03    0.10901E-03   -0.25809E-04  2208   0.610E-02    0.401E-02
DAV:  11    -0.846526900719E+03   -0.28635E-04   -0.24629E-04  1976   0.374E-02    0.334E-02
DAV:  12    -0.846526917803E+03   -0.17084E-04   -0.43411E-05  1616   0.193E-02    0.125E-02
DAV:  13    -0.846526946389E+03   -0.28586E-04   -0.16740E-05  1464   0.145E-02    0.715E-03
DAV:  14    -0.846526964261E+03   -0.17872E-04   -0.13668E-05  1464   0.784E-03    0.746E-03
DAV:  15    -0.846526973952E+03   -0.96908E-05   -0.31748E-06  1408   0.502E-03
  14 F= -.84652697E+03 E0= -.84652413E+03  d E =-.136171E+01  mag=    -2.0000
 BRION: g(F)=  0.394E+01 g(S)=  0.000E+00 retain N=  2 mean eig= 0.71
 eig:   0.197  1.216
 bond charge predicted
       N       E                     dE             d eps       ncg     rms          rms(c)
DAV:   1    -0.848154915805E+03   -0.16280E+01   -0.31416E+02  1712   0.269E+01    0.297E+00
DAV:   2    -0.848920861084E+03   -0.76595E+00   -0.92417E+00  2056   0.409E+00    0.226E+00
DAV:   3    -0.848864813299E+03    0.56048E-01   -0.21715E-01  2088   0.931E-01    0.141E+00
DAV:   4    -0.848829250372E+03    0.35563E-01   -0.12769E-01  2048   0.705E-01    0.774E-01
DAV:   5    -0.848827402545E+03    0.18478E-02   -0.42268E-02  2168   0.415E-01    0.687E-01
DAV:   6    -0.848825873790E+03    0.15288E-02   -0.15534E-02  2096   0.242E-01    0.254E-01
DAV:   7    -0.848825393108E+03    0.48068E-03   -0.33425E-03  2064   0.127E-01    0.140E-01
DAV:   8    -0.848824863181E+03    0.52993E-03   -0.62019E-04  2096   0.949E-02    0.793E-02
DAV:   9    -0.848824492647E+03    0.37053E-03   -0.67153E-04  2184   0.977E-02    0.848E-02
DAV:  10    -0.848824360591E+03    0.13206E-03   -0.67230E-04  2208   0.641E-02    0.578E-02
DAV:  11    -0.848824281719E+03    0.78873E-04   -0.96604E-05  2000   0.450E-02    0.217E-02
DAV:  12    -0.848824273145E+03    0.85733E-05   -0.59926E-05  1944   0.355E-02
  15 F= -.84882427E+03 E0= -.84882054E+03  d E =-.229730E+01  mag=    -2.0000
 BRION: g(F)=  0.293E+01 g(S)=  0.000E+00 retain N=  3 mean eig= 1.14
 eig:   0.278  0.720  2.413
 bond charge predicted
       N       E                     dE             d eps       ncg     rms          rms(c)
DAV:   1    -0.848921590449E+03   -0.97309E-01   -0.12369E+02  1712   0.177E+01    0.676E+00
DAV:   2    -0.849379579916E+03   -0.45799E+00   -0.12488E+01  2112   0.422E+00    0.921E+00
DAV:   3    -0.849157914563E+03    0.22167E+00   -0.12055E+00  2156   0.211E+00    0.413E+00
DAV:   4    -0.849099798015E+03    0.58117E-01   -0.61574E-01  2016   0.102E+00    0.231E+00
DAV:   5    -0.849109972644E+03   -0.10175E-01   -0.10469E-01  2064   0.508E-01    0.190E+00
DAV:   6    -0.849070006387E+03    0.39966E-01   -0.73162E-02  2144   0.460E-01    0.715E-01
DAV:   7    -0.849065969574E+03    0.40368E-02   -0.48190E-02  2096   0.449E-01    0.147E+00
DAV:   8    -0.849062310778E+03    0.36588E-02   -0.14531E-02  1976   0.219E-01    0.474E-01
DAV:   9    -0.849062783413E+03   -0.47263E-03   -0.33805E-03  2064   0.127E-01    0.139E-01
DAV:  10    -0.849062923192E+03   -0.13978E-03   -0.14030E-03  2064   0.904E-02    0.964E-02
DAV:  11    -0.849062774235E+03    0.14896E-03   -0.55195E-04  2264   0.650E-02    0.178E-01
DAV:  12    -0.849062593127E+03    0.18111E-03   -0.42575E-04  2112   0.706E-02    0.895E-02
DAV:  13    -0.849062598916E+03   -0.57890E-05   -0.25480E-04  2056   0.444E-02    0.276E-02
DAV:  14    -0.849062644605E+03   -0.45690E-04   -0.88883E-05  2016   0.228E-02    0.181E-02
DAV:  15    -0.849062687291E+03   -0.42686E-04   -0.17549E-05  1448   0.152E-02    0.856E-03
DAV:  16    -0.849062713284E+03   -0.25993E-04   -0.13656E-05  1432   0.107E-02    0.783E-03
DAV:  17    -0.849062722080E+03   -0.87960E-05   -0.82220E-06  1456   0.607E-03
  16 F= -.84906272E+03 E0= -.84905751E+03  d E =-.238449E+00  mag=    -2.0000
 BRION: g(F)=  0.654E+01 g(S)=  0.000E+00 retain N=  4 mean eig= 1.30
 eig:   3.861  0.570  0.313  0.449
 bond charge predicted
       N       E                     dE             d eps       ncg     rms          rms(c)
DAV:   1    -0.850202413066E+03   -0.11397E+01   -0.10283E+02  1712   0.162E+01    0.186E+00
DAV:   2    -0.850381365623E+03   -0.17895E+00   -0.27097E+00  2096   0.252E+00    0.150E+00
DAV:   3    -0.850354952721E+03    0.26413E-01   -0.11259E-01  2136   0.655E-01    0.113E+00
DAV:   4    -0.850338379796E+03    0.16573E-01   -0.44183E-02  2120   0.366E-01    0.789E-01
DAV:   5    -0.850319211568E+03    0.19168E-01   -0.29028E-02  2216   0.494E-01    0.315E-01
DAV:   6    -0.850316594526E+03    0.26170E-02   -0.17030E-02  2280   0.347E-01    0.177E-01
DAV:   7    -0.850316381245E+03    0.21328E-03   -0.69114E-03  2000   0.148E-01    0.179E-01
DAV:   8    -0.850315083012E+03    0.12982E-02   -0.10180E-03  2216   0.102E-01    0.121E-01
DAV:   9    -0.850314269635E+03    0.81338E-03   -0.94440E-04  2272   0.140E-01    0.991E-02
DAV:  10    -0.850314176943E+03    0.92692E-04   -0.75365E-04  2128   0.847E-02    0.374E-02
DAV:  11    -0.850314301705E+03   -0.12476E-03   -0.53526E-04  2000   0.533E-02    0.695E-02
DAV:  12    -0.850314324806E+03   -0.23101E-04   -0.98173E-05  2056   0.226E-02    0.284E-02
DAV:  13    -0.850314362166E+03   -0.37360E-04   -0.33972E-05  1656   0.123E-02    0.160E-02
DAV:  14    -0.850314426849E+03   -0.64683E-04   -0.30828E-05  1640   0.137E-02    0.107E-02
DAV:  15    -0.850314443036E+03   -0.16187E-04   -0.11635E-05  1464   0.753E-03    0.534E-03
DAV:  16    -0.850314460287E+03   -0.17250E-04   -0.63265E-06  1384   0.640E-03    0.355E-03
DAV:  17    -0.850314475706E+03   -0.15420E-04   -0.40560E-06  1424   0.473E-03    0.383E-03
DAV:  18    -0.850314481502E+03   -0.57957E-05   -0.13817E-06  1432   0.295E-03
  17 F= -.85031448E+03 E0= -.85030960E+03  d E =-.125176E+01  mag=    -2.0000
 BRION: g(F)=  0.371E+01 g(S)=  0.000E+00 retain N=  5 mean eig= 2.33
 eig:   6.646  3.820  0.494  0.494  0.197
 bond charge predicted
       N       E                     dE             d eps       ncg     rms          rms(c)
DAV:   1    -0.851236285786E+03   -0.92181E+00   -0.58356E+01  1712   0.117E+01    0.137E+00
DAV:   2    -0.851356660524E+03   -0.12037E+00   -0.14533E+00  2024   0.168E+00    0.904E-01
DAV:   3    -0.851350641699E+03    0.60188E-02   -0.34316E-02  2096   0.332E-01    0.604E-01
DAV:   4    -0.851346537204E+03    0.41045E-02   -0.13971E-02  2120   0.210E-01    0.547E-01
DAV:   5    -0.851344280029E+03    0.22572E-02   -0.10731E-02  2040   0.192E-01    0.333E-01
DAV:   6    -0.851344249101E+03    0.30928E-04   -0.35499E-03  2048   0.111E-01    0.170E-01
DAV:   7    -0.851344151964E+03    0.97137E-04   -0.20387E-03  1984   0.850E-02    0.100E-01
DAV:   8    -0.851344092781E+03    0.59183E-04   -0.46120E-04  2024   0.435E-02    0.580E-02
DAV:   9    -0.851344062314E+03    0.30467E-04   -0.69629E-05  1864   0.256E-02    0.494E-02
DAV:  10    -0.851344003086E+03    0.59228E-04   -0.11852E-04  2024   0.376E-02    0.412E-02
DAV:  11    -0.851344000603E+03    0.24831E-05   -0.66176E-05  1968   0.178E-02
  18 F= -.85134400E+03 E0= -.85134037E+03  d E =-.102952E+01  mag=    -2.0000
 BRION: g(F)=  0.297E+01 g(S)=  0.000E+00 retain N=  6 mean eig= 3.07
 eig:   7.892  7.892  1.167  0.247  0.620  0.620
 bond charge predicted
       N       E                     dE             d eps       ncg     rms          rms(c)
DAV:   1    -0.851746308939E+03   -0.40231E+00   -0.11596E+01  1712   0.520E+00    0.629E-01
DAV:   2    -0.851768544104E+03   -0.22235E-01   -0.26734E-01  2056   0.709E-01    0.385E-01
DAV:   3    -0.851767290849E+03    0.12533E-02   -0.67956E-03  2128   0.160E-01    0.233E-01
DAV:   4    -0.851766340691E+03    0.95016E-03   -0.23032E-03  2088   0.104E-01    0.131E-01
DAV:   5    -0.851766220745E+03    0.11995E-03   -0.11913E-03  2096   0.722E-02    0.754E-02
DAV:   6    -0.851766176418E+03    0.44327E-04   -0.38470E-04  2144   0.456E-02    0.396E-02
DAV:   7    -0.851766154895E+03    0.21523E-04   -0.15881E-04  2056   0.257E-02    0.283E-02
DAV:   8    -0.851766127120E+03    0.27776E-04   -0.41459E-05  1536   0.186E-02    0.145E-02
DAV:   9    -0.851766111667E+03    0.15453E-04   -0.15542E-05  1480   0.167E-02    0.728E-03
DAV:  10    -0.851766106353E+03    0.53145E-05   -0.21986E-05  1480   0.146E-02
  19 F= -.85176611E+03 E0= -.85176435E+03  d E =-.422106E+00  mag=    -2.0000
 BRION: g(F)=  0.285E+01 g(S)=  0.000E+00 retain N=  5 mean eig= 3.01
 eig:   6.595  6.595  0.606  0.606  0.660
 bond charge predicted
       N       E                     dE             d eps       ncg     rms          rms(c)
DAV:   1    -0.852267693892E+03   -0.50158E+00   -0.57735E+02  1712   0.372E+01    0.432E+00
DAV:   2    -0.854140314354E+03   -0.18726E+01   -0.20455E+01  2040   0.617E+00    0.332E+00
DAV:   3    -0.854013401486E+03    0.12691E+00   -0.41242E-01  2120   0.130E+00    0.215E+00
DAV:   4    -0.853918532446E+03    0.94869E-01   -0.37857E-01  2088   0.123E+00    0.759E-01
DAV:   5    -0.853915349524E+03    0.31829E-02   -0.76194E-02  2120   0.607E-01    0.452E-01
DAV:   6    -0.853913340858E+03    0.20087E-02   -0.35886E-02  2096   0.421E-01    0.257E-01
DAV:   7    -0.853912956893E+03    0.38397E-03   -0.60696E-03  2072   0.163E-01    0.175E-01
DAV:   8    -0.853912438016E+03    0.51888E-03   -0.12449E-03  2040   0.901E-02    0.928E-02
DAV:   9    -0.853911913726E+03    0.52429E-03   -0.96507E-04  2016   0.109E-01    0.755E-02
DAV:  10    -0.853911756929E+03    0.15680E-03   -0.57854E-04  2288   0.706E-02    0.508E-02
DAV:  11    -0.853911727483E+03    0.29446E-04   -0.33717E-04  1960   0.510E-02    0.234E-02
DAV:  12    -0.853911740226E+03   -0.12743E-04   -0.78983E-05  1928   0.367E-02    0.224E-02
DAV:  13    -0.853911754105E+03   -0.13880E-04   -0.46527E-05  1976   0.275E-02    0.180E-02
DAV:  14    -0.853911764585E+03   -0.10480E-04   -0.54020E-05  1984   0.151E-02    0.961E-03
DAV:  15    -0.853911769012E+03   -0.44272E-05   -0.49692E-06  1448   0.449E-03
  20 F= -.85391177E+03 E0= -.85391177E+03  d E =-.214566E+01  mag=    -2.0000
 BRION: g(F)=  0.503E+01 g(S)=  0.000E+00 retain N=  5 mean eig= 1.95
 eig:   7.562  0.901  0.386  0.386  0.531
 bond charge predicted
       N       E                     dE             d eps       ncg     rms          rms(c)
DAV:   1    -0.850402482964E+03    0.35093E+01   -0.54711E+02  1784   0.359E+01    0.409E+00
DAV:   2    -0.852565289192E+03   -0.21628E+01   -0.24400E+01  2136   0.665E+00    0.293E+00
DAV:   3    -0.852404914230E+03    0.16037E+00   -0.43654E-01  2088   0.131E+00    0.188E+00
DAV:   4    -0.852295104472E+03    0.10981E+00   -0.24934E-01  2096   0.111E+00    0.878E-01
DAV:   5    -0.852289318851E+03    0.57856E-02   -0.85947E-02  2104   0.607E-01    0.497E-01
DAV:   6    -0.852286243750E+03    0.30751E-02   -0.37991E-02  2064   0.410E-01    0.319E-01
DAV:   7    -0.852285047763E+03    0.11960E-02   -0.70650E-03  2176   0.173E-01    0.193E-01
DAV:   8    -0.852284704336E+03    0.34343E-03   -0.12383E-03  2008   0.809E-02    0.110E-01
DAV:   9    -0.852284039732E+03    0.66460E-03   -0.12660E-03  2000   0.122E-01    0.677E-02
DAV:  10    -0.852284000180E+03    0.39552E-04   -0.56815E-04  2104   0.690E-02    0.437E-02
DAV:  11    -0.852283992937E+03    0.72437E-05   -0.38948E-04  2312   0.805E-02    0.242E-02
DAV:  12    -0.852284043689E+03   -0.50753E-04   -0.25316E-04  2096   0.486E-02    0.288E-02
DAV:  13    -0.852284058410E+03   -0.14720E-04   -0.89165E-05  2000   0.212E-02    0.148E-02
DAV:  14    -0.852284082172E+03   -0.23762E-04   -0.21580E-05  1592   0.119E-02    0.723E-03
DAV:  15    -0.852284092792E+03   -0.10620E-04   -0.82314E-06  1416   0.722E-03    0.510E-03
DAV:  16    -0.852284099646E+03   -0.68542E-05   -0.42309E-06  1400   0.542E-03
  21 F= -.85228410E+03 E0= -.85228410E+03  d E =0.162767E+01  mag=    -2.0000
 BRION: g(F)=  0.331E+01 g(S)=  0.000E+00 retain N=  4 mean eig= 1.51
 eig:   0.624  0.469  0.778  4.168
 bond charge predicted
       N       E                     dE             d eps       ncg     rms          rms(c)
DAV:   1    -0.853592740344E+03   -0.13086E+01   -0.18258E+02  1712   0.214E+01    0.259E+00
DAV:   2    -0.854000659630E+03   -0.40792E+00   -0.53536E+00  2088   0.332E+00    0.166E+00
DAV:   3    -0.853965761749E+03    0.34898E-01   -0.14302E-01  2128   0.791E-01    0.110E+00
DAV:   4    -0.853931208309E+03    0.34553E-01   -0.89352E-02  2072   0.668E-01    0.471E-01
DAV:   5    -0.853926680836E+03    0.45275E-02   -0.26686E-02  2144   0.461E-01    0.274E-01
DAV:   6    -0.853925741283E+03    0.93955E-03   -0.16654E-02  2096   0.271E-01    0.173E-01
DAV:   7    -0.853924600369E+03    0.11409E-02   -0.16058E-03  2056   0.109E-01    0.107E-01
DAV:   8    -0.853923737482E+03    0.86289E-03   -0.45360E-04  2400   0.117E-01    0.762E-02
DAV:   9    -0.853923231926E+03    0.50556E-03   -0.68131E-04  2224   0.117E-01    0.330E-02
DAV:  10    -0.853923188255E+03    0.43671E-04   -0.66029E-04  2104   0.856E-02    0.416E-02
DAV:  11    -0.853923221239E+03   -0.32984E-04   -0.33579E-04  2064   0.424E-02    0.250E-02
DAV:  12    -0.853923241082E+03   -0.19843E-04   -0.43365E-05  1904   0.156E-02    0.148E-02
DAV:  13    -0.853923283538E+03   -0.42456E-04   -0.31420E-05  1672   0.212E-02    0.122E-02
DAV:  14    -0.853923289134E+03   -0.55960E-05   -0.17807E-05  1520   0.110E-02
  22 F= -.85392329E+03 E0= -.85392329E+03  d E =-.163919E+01  mag=    -2.0000
 BRION: g(F)=  0.411E+01 g(S)=  0.000E+00 retain N=  5 mean eig= 1.74
 eig:   6.709  0.703  0.541  0.541  0.194
 bond charge predicted
       N       E                     dE             d eps       ncg     rms          rms(c)
DAV:   1    -0.854000024371E+03   -0.76741E-01   -0.23517E+01  1712   0.805E+00    0.912E-01
DAV:   2    -0.854037271593E+03   -0.37247E-01   -0.68381E-01  2096   0.131E+00    0.657E-01
DAV:   3    -0.854023833464E+03    0.13438E-01   -0.23959E-02  2136   0.371E-01    0.421E-01
DAV:   4    -0.854014772006E+03    0.90615E-02   -0.11283E-02  2160   0.316E-01    0.163E-01
DAV:   5    -0.854013153548E+03    0.16185E-02   -0.75464E-03  2280   0.251E-01    0.100E-01
DAV:   6    -0.854012969068E+03    0.18448E-03   -0.41631E-03  2072   0.131E-01    0.904E-02
DAV:   7    -0.854012339287E+03    0.62978E-03   -0.31935E-04  2256   0.901E-02    0.495E-02
DAV:   8    -0.854012024694E+03    0.31459E-03   -0.32407E-04  2280   0.900E-02    0.252E-02
DAV:   9    -0.854012004046E+03    0.20648E-04   -0.35656E-04  2248   0.554E-02    0.244E-02
DAV:  10    -0.854012013845E+03   -0.97990E-05   -0.13863E-04  2088   0.244E-02    0.185E-02
DAV:  11    -0.854012014605E+03   -0.76037E-06   -0.13667E-05  1392   0.127E-02
  23 F= -.85401201E+03 E0= -.85401201E+03  d E =-.887255E-01  mag=    -2.0000
 BRION: g(F)=  0.302E+01 g(S)=  0.000E+00 retain N=  3 mean eig= 2.09
 eig:   5.618  0.432  0.218
 bond charge predicted
       N       E                     dE             d eps       ncg     rms          rms(c)
DAV:   1    -0.854732378292E+03   -0.72036E+00   -0.48064E+01  1712   0.109E+01    0.128E+00
DAV:   2    -0.854833372722E+03   -0.10099E+00   -0.12739E+00  2096   0.166E+00    0.816E-01
DAV:   3    -0.854825496148E+03    0.78766E-02   -0.28759E-02  2120   0.340E-01    0.527E-01
DAV:   4    -0.854818497371E+03    0.69988E-02   -0.17274E-02  2024   0.274E-01    0.215E-01
DAV:   5    -0.854818371913E+03    0.12546E-03   -0.50252E-03  2064   0.171E-01    0.114E-01
DAV:   6    -0.854818280033E+03    0.91879E-04   -0.25831E-03  2088   0.107E-01    0.827E-02
DAV:   7    -0.854818193823E+03    0.86210E-04   -0.29276E-04  2032   0.418E-02    0.493E-02
DAV:   8    -0.854818100667E+03    0.93155E-04   -0.77206E-05  2088   0.329E-02    0.260E-02
DAV:   9    -0.854818043674E+03    0.56994E-04   -0.11411E-04  2216   0.406E-02    0.247E-02
DAV:  10    -0.854818037345E+03    0.63285E-05   -0.77267E-05  2104   0.210E-02
  24 F= -.85481804E+03 E0= -.85481804E+03  d E =-.806023E+00  mag=    -2.0000
 BRION: g(F)=  0.266E+01 g(S)=  0.000E+00 retain N=  4 mean eig= 1.69
 eig:   6.023  0.399  0.143  0.214
 bond charge predicted
       N       E                     dE             d eps       ncg     rms          rms(c)
DAV:   1    -0.854879695480E+03   -0.61652E-01   -0.64762E+00  1728   0.420E+00    0.485E-01
DAV:   2    -0.854889435798E+03   -0.97403E-02   -0.19490E-01  2136   0.690E-01    0.358E-01
DAV:   3    -0.854885519116E+03    0.39167E-02   -0.66976E-03  2136   0.186E-01    0.232E-01
DAV:   4    -0.854883274579E+03    0.22445E-02   -0.41965E-03  2136   0.157E-01    0.890E-02
DAV:   5    -0.854883022055E+03    0.25252E-03   -0.17197E-03  2160   0.103E-01    0.467E-02
[...]
DAV:   1    -0.866518227880E+03   -0.17426E-04   -0.10371E-03  1632   0.494E-02    0.687E-03
DAV:   2    -0.866518229867E+03   -0.19869E-05   -0.23801E-05  1568   0.691E-03
 457 F= -.86651823E+03 E0= -.86651823E+03  d E =-.190189E-04  mag=     0.0000
 BRION: g(F)=  0.251E-04 g(S)=  0.000E+00 retain N=  2 mean eig= 0.26
 eig:   0.260  0.260
 bond charge predicted
       N       E                     dE             d eps       ncg     rms          rms(c)
DAV:   1    -0.866518236407E+03   -0.85271E-05   -0.19542E-04  1600   0.227E-02    0.426E-03
DAV:   2    -0.866518236801E+03   -0.39353E-06   -0.51455E-06   960   0.358E-03
 458 F= -.86651824E+03 E0= -.86651824E+03  d E =-.693379E-05  mag=     0.0000
 BRION: g(F)=  0.223E-04 g(S)=  0.000E+00 retain N=  1 mean eig= 0.24
 eig:   0.243
 bond charge predicted
       N       E                     dE             d eps       ncg     rms          rms(c)
DAV:   1    -0.866518253863E+03   -0.17455E-04   -0.10559E-03  1648   0.500E-02    0.688E-03
DAV:   2    -0.866518255861E+03   -0.19982E-05   -0.24319E-05  1568   0.697E-03
 459 F= -.86651826E+03 E0= -.86651826E+03  d E =-.190600E-04  mag=     0.0000
 BRION: g(F)=  0.247E-04 g(S)=  0.000E+00 retain N=  2 mean eig= 0.28
 eig:   0.277  0.277
 bond charge predicted
       N       E                     dE             d eps       ncg     rms          rms(c)
DAV:   1    -0.866518262525E+03   -0.86621E-05   -0.19784E-04  1616   0.229E-02    0.432E-03
DAV:   2    -0.866518262913E+03   -0.38839E-06   -0.51591E-06   936   0.362E-03
 460 F= -.86651826E+03 E0= -.86651826E+03  d E =-.705232E-05  mag=     0.0000
 BRION: g(F)=  0.222E-04 g(S)=  0.000E+00 retain N=  1 mean eig= 0.25
 eig:   0.248
 bond charge predicted
       N       E                     dE             d eps       ncg     rms          rms(c)
DAV:   1    -0.866518279595E+03   -0.17070E-04   -0.10099E-03  1632   0.490E-02    0.680E-03
DAV:   2    -0.866518281519E+03   -0.19239E-05   -0.23374E-05  1552   0.691E-03
 461 F= -.86651828E+03 E0= -.86651828E+03  d E =-.186052E-04  mag=     0.0000
 BRION: g(F)=  0.255E-04 g(S)=  0.000E+00 retain N=  2 mean eig= 0.24
 eig:   0.245  0.245
 bond charge predicted
       N       E                     dE             d eps       ncg     rms          rms(c)
DAV:   1    -0.866518287927E+03   -0.83324E-05   -0.19096E-04  1616   0.225E-02    0.417E-03
DAV:   2    -0.866518288317E+03   -0.38947E-06   -0.50799E-06   984   0.356E-03
 462 F= -.86651829E+03 E0= -.86651829E+03  d E =-.679801E-05  mag=     0.0000
 BRION: g(F)=  0.216E-04 g(S)=  0.000E+00 retain N=  1 mean eig= 0.25
 eig:   0.247
 bond charge predicted
       N       E                     dE             d eps       ncg     rms          rms(c)
DAV:   1    -0.866518305339E+03   -0.17412E-04   -0.10973E-03  1648   0.509E-02    0.695E-03
DAV:   2    -0.866518307408E+03   -0.20685E-05   -0.25085E-05  1584   0.708E-03
 463 F= -.86651831E+03 E0= -.86651831E+03  d E =-.190911E-04  mag=     0.0000
 BRION: g(F)=  0.238E-04 g(S)=  0.000E+00 retain N=  2 mean eig= 0.29
 eig:   0.286  0.286
 bond charge predicted
       N       E                     dE             d eps       ncg     rms          rms(c)
DAV:   1    -0.866518314139E+03   -0.88001E-05   -0.20324E-04  1616   0.231E-02    0.437E-03
DAV:   2    -0.866518314528E+03   -0.38889E-06   -0.51903E-06   936   0.363E-03
 464 F= -.86651831E+03 E0= -.86651831E+03  d E =-.712045E-05  mag=     0.0000
 BRION: g(F)=  0.216E-04 g(S)=  0.000E+00 retain N=  1 mean eig= 0.25
 eig:   0.246
 bond charge predicted
       N       E                     dE             d eps       ncg     rms          rms(c)
DAV:   1    -0.866518331295E+03   -0.17156E-04   -0.95863E-04  1632   0.475E-02    0.663E-03
DAV:   2    -0.866518333102E+03   -0.18065E-05   -0.21769E-05  1488   0.666E-03
 465 F= -.86651833E+03 E0= -.86651833E+03  d E =-.185735E-04  mag=     0.0000
 BRION: g(F)=  0.241E-04 g(S)=  0.000E+00 retain N=  2 mean eig= 0.25
 eig:   0.252  0.252
 bond charge predicted
       N       E                     dE             d eps       ncg     rms          rms(c)
DAV:   1    -0.866518339533E+03   -0.82375E-05   -0.18574E-04  1600   0.221E-02    0.411E-03
DAV:   2    -0.866518339905E+03   -0.37214E-06   -0.48709E-06   960   0.348E-03
 466 F= -.86651834E+03 E0= -.86651834E+03  d E =-.680318E-05  mag=     0.0000
 BRION: g(F)=  0.212E-04 g(S)=  0.000E+00 retain N=  1 mean eig= 0.24
 eig:   0.245
 bond charge predicted
       N       E                     dE             d eps       ncg     rms          rms(c)
DAV:   1    -0.866518355853E+03   -0.16320E-04   -0.10270E-03  1648   0.493E-02    0.674E-03
DAV:   2    -0.866518357795E+03   -0.19424E-05   -0.23584E-05  1568   0.688E-03
 467 F= -.86651836E+03 E0= -.86651836E+03  d E =-.178907E-04  mag=     0.0000
 BRION: g(F)=  0.235E-04 g(S)=  0.000E+00 retain N=  2 mean eig= 0.27
 eig:   0.271  0.271
 bond charge predicted
       N       E                     dE             d eps       ncg     rms          rms(c)
DAV:   1    -0.866518364088E+03   -0.82350E-05   -0.19039E-04  1616   0.225E-02    0.423E-03
DAV:   2    -0.866518364461E+03   -0.37305E-06   -0.49484E-06   936   0.354E-03
 468 F= -.86651836E+03 E0= -.86651836E+03  d E =-.666573E-05  mag=     0.0000
 BRION: g(F)=  0.209E-04 g(S)=  0.000E+00 retain N=  1 mean eig= 0.25
 eig:   0.247
 bond charge predicted
       N       E                     dE             d eps       ncg     rms          rms(c)
DAV:   1    -0.866518380249E+03   -0.16160E-04   -0.95895E-04  1632   0.476E-02    0.663E-03
DAV:   2    -0.866518382072E+03   -0.18235E-05   -0.21925E-05  1504   0.666E-03
 469 F= -.86651838E+03 E0= -.86651838E+03  d E =-.176109E-04  mag=     0.0000
 BRION: g(F)=  0.233E-04 g(S)=  0.000E+00 retain N=  2 mean eig= 0.26
 eig:   0.259  0.259
 bond charge predicted
       N       E                     dE             d eps       ncg     rms          rms(c)
DAV:   1    -0.866518388128E+03   -0.78797E-05   -0.18278E-04  1600   0.220E-02    0.411E-03
DAV:   2    -0.866518388493E+03   -0.36498E-06   -0.47953E-06   936   0.346E-03
 470 F= -.86651839E+03 E0= -.86651839E+03  d E =-.642120E-05  mag=     0.0000
 BRION: g(F)=  0.206E-04 g(S)=  0.000E+00 retain N=  1 mean eig= 0.24
 eig:   0.245
 bond charge predicted
       N       E                     dE             d eps       ncg     rms          rms(c)
DAV:   1    -0.866518404261E+03   -0.16133E-04   -0.97473E-04  1632   0.481E-02    0.663E-03
DAV:   2    -0.866518406107E+03   -0.18459E-05   -0.22427E-05  1504   0.674E-03
 471 F= -.86651841E+03 E0= -.86651841E+03  d E =-.176134E-04  mag=     0.0000
 BRION: g(F)=  0.229E-04 g(S)=  0.000E+00 retain N=  2 mean eig= 0.27
 eig:   0.267  0.267
 bond charge predicted
       N       E                     dE             d eps       ncg     rms          rms(c)
DAV:   1    -0.866518412226E+03   -0.79651E-05   -0.17639E-04  1616   0.216E-02    0.411E-03
DAV:   2    -0.866518412572E+03   -0.34613E-06   -0.45670E-06   920   0.341E-03
 472 F= -.86651841E+03 E0= -.86651841E+03  d E =-.646540E-05  mag=     0.0000
 BRION: g(F)=  0.205E-04 g(S)=  0.000E+00 retain N=  1 mean eig= 0.24
 eig:   0.245
 bond charge predicted
       N       E                     dE             d eps       ncg     rms          rms(c)
DAV:   1    -0.866518428083E+03   -0.15857E-04   -0.94948E-04  1632   0.473E-02    0.658E-03
DAV:   2    -0.866518429897E+03   -0.18136E-05   -0.21827E-05  1488   0.665E-03
 473 F= -.86651843E+03 E0= -.86651843E+03  d E =-.173245E-04  mag=     0.0000
 BRION: g(F)=  0.231E-04 g(S)=  0.000E+00 retain N=  2 mean eig= 0.27
 eig:   0.272  0.272
 bond charge predicted
       N       E                     dE             d eps       ncg     rms          rms(c)
DAV:   1    -0.866518435878E+03   -0.77953E-05   -0.18419E-04  1600   0.221E-02    0.410E-03
DAV:   2    -0.866518436248E+03   -0.36963E-06   -0.48861E-06   960   0.349E-03
 474 F= -.86651844E+03 E0= -.86651844E+03  d E =-.635127E-05  mag=     0.0000
 BRION: g(F)=  0.205E-04 g(S)=  0.000E+00 retain N=  1 mean eig= 0.24
 eig:   0.244
 bond charge predicted
       N       E                     dE             d eps       ncg     rms          rms(c)
DAV:   1    -0.866518451305E+03   -0.15427E-04   -0.95779E-04  1648   0.478E-02    0.660E-03
DAV:   2    -0.866518453118E+03   -0.18132E-05   -0.22340E-05  1520   0.674E-03
 475 F= -.86651845E+03 E0= -.86651845E+03  d E =-.168702E-04  mag=     0.0000
 BRION: g(F)=  0.232E-04 g(S)=  0.000E+00 retain N=  2 mean eig= 0.26
 eig:   0.258  0.258
 bond charge predicted
       N       E                     dE             d eps       ncg     rms          rms(c)
DAV:   1    -0.866518459024E+03   -0.77190E-05   -0.17518E-04  1616   0.216E-02    0.407E-03
DAV:   2    -0.866518459377E+03   -0.35358E-06   -0.46610E-06   920   0.345E-03
 476 F= -.86651846E+03 E0= -.86651846E+03  d E =-.625939E-05  mag=     0.0000
 BRION: g(F)=  0.202E-04 g(S)=  0.000E+00 retain N=  1 mean eig= 0.25
 eig:   0.247
 bond charge predicted
       N       E                     dE             d eps       ncg     rms          rms(c)
DAV:   1    -0.866518474816E+03   -0.15792E-04   -0.96478E-04  1632   0.478E-02    0.664E-03
DAV:   2    -0.866518476673E+03   -0.18574E-05   -0.22457E-05  1536   0.675E-03
 477 F= -.86651848E+03 E0= -.86651848E+03  d E =-.172959E-04  mag=     0.0000
 BRION: g(F)=  0.230E-04 g(S)=  0.000E+00 retain N=  2 mean eig= 0.27
 eig:   0.272  0.272
 bond charge predicted
       N       E                     dE             d eps       ncg     rms          rms(c)
DAV:   1    -0.866518482868E+03   -0.80523E-05   -0.18373E-04  1600   0.221E-02    0.411E-03
DAV:   2    -0.866518483239E+03   -0.37051E-06   -0.49117E-06   936   0.351E-03
 478 F= -.86651848E+03 E0= -.86651848E+03  d E =-.656542E-05  mag=     0.0000
 BRION: g(F)=  0.200E-04 g(S)=  0.000E+00 retain N=  1 mean eig= 0.25
 eig:   0.246
 bond charge predicted
       N       E                     dE             d eps       ncg     rms          rms(c)
DAV:   1    -0.866518498747E+03   -0.15879E-04   -0.95976E-04  1648   0.478E-02    0.660E-03
DAV:   2    -0.866518500555E+03   -0.18084E-05   -0.22235E-05  1504   0.672E-03
 479 F= -.86651850E+03 E0= -.86651850E+03  d E =-.173165E-04  mag=     0.0000
 BRION: g(F)=  0.226E-04 g(S)=  0.000E+00 retain N=  2 mean eig= 0.27
 eig:   0.269  0.269
 bond charge predicted
       N       E                     dE             d eps       ncg     rms          rms(c)
DAV:   1    -0.866518506234E+03   -0.74875E-05   -0.17157E-04  1616   0.214E-02    0.406E-03
DAV:   2    -0.866518506579E+03   -0.34503E-06   -0.45413E-06   920   0.340E-03
 480 F= -.86651851E+03 E0= -.86651851E+03  d E =-.602406E-05  mag=     0.0000
 BRION: g(F)=  0.198E-04 g(S)=  0.000E+00 retain N=  1 mean eig= 0.25
 eig:   0.247
 bond charge predicted
       N       E                     dE             d eps       ncg     rms          rms(c)
DAV:   1    -0.866518521726E+03   -0.15492E-04   -0.94771E-04  1632   0.473E-02    0.658E-03
DAV:   2    -0.866518523558E+03   -0.18321E-05   -0.22059E-05  1536   0.668E-03
 481 F= -.86651852E+03 E0= -.86651852E+03  d E =-.169788E-04  mag=     0.0000
 BRION: g(F)=  0.227E-04 g(S)=  0.000E+00 retain N=  2 mean eig= 0.27
 eig:   0.268  0.268
 bond charge predicted
       N       E                     dE             d eps       ncg     rms          rms(c)
DAV:   1    -0.866518529277E+03   -0.75510E-05   -0.17331E-04  1632   0.215E-02    0.403E-03
DAV:   2    -0.866518529626E+03   -0.34877E-06   -0.46257E-06   936   0.341E-03
 482 F= -.86651853E+03 E0= -.86651853E+03  d E =-.606767E-05  mag=     0.0000
 BRION: g(F)=  0.197E-04 g(S)=  0.000E+00 retain N=  1 mean eig= 0.25
 eig:   0.248
 bond charge predicted
       N       E                     dE             d eps       ncg     rms          rms(c)
DAV:   1    -0.866518544822E+03   -0.15545E-04   -0.96746E-04  1648   0.479E-02    0.659E-03
DAV:   2    -0.866518546644E+03   -0.18225E-05   -0.22285E-05  1488   0.671E-03
 483 F= -.86651855E+03 E0= -.86651855E+03  d E =-.170183E-04  mag=     0.0000
 BRION: g(F)=  0.221E-04 g(S)=  0.000E+00 retain N=  2 mean eig= 0.28
 eig:   0.280  0.280
 bond charge predicted
       N       E                     dE             d eps       ncg     rms          rms(c)
DAV:   1    -0.866518552525E+03   -0.77037E-05   -0.17611E-04  1616   0.216E-02    0.408E-03
DAV:   2    -0.866518552876E+03   -0.35055E-06   -0.46135E-06   920   0.342E-03
 484 F= -.86651855E+03 E0= -.86651855E+03  d E =-.623169E-05  mag=     0.0000
 BRION: g(F)=  0.196E-04 g(S)=  0.000E+00 retain N=  1 mean eig= 0.25
 eig:   0.246
 bond charge predicted
       N       E                     dE             d eps       ncg     rms          rms(c)
DAV:   1    -0.866518567636E+03   -0.15111E-04   -0.91484E-04  1632   0.464E-02    0.647E-03
DAV:   2    -0.866518569394E+03   -0.17580E-05   -0.21117E-05  1488   0.655E-03
 485 F= -.86651857E+03 E0= -.86651857E+03  d E =-.165185E-04  mag=     0.0000
 BRION: g(F)=  0.221E-04 g(S)=  0.000E+00 retain N=  2 mean eig= 0.27
 eig:   0.268  0.268
 bond charge predicted
       N       E                     dE             d eps       ncg     rms          rms(c)
DAV:   1    -0.866518575351E+03   -0.77150E-05   -0.17417E-04  1600   0.215E-02    0.400E-03
DAV:   2    -0.866518575699E+03   -0.34747E-06   -0.46167E-06   960   0.342E-03
 486 F= -.86651858E+03 E0= -.86651858E+03  d E =-.630446E-05  mag=     0.0000
 BRION: g(F)=  0.194E-04 g(S)=  0.000E+00 retain N=  1 mean eig= 0.25
 eig:   0.246
 bond charge predicted
       N       E                     dE             d eps       ncg     rms          rms(c)
DAV:   1    -0.866518590455E+03   -0.15104E-04   -0.94212E-04  1648   0.472E-02    0.650E-03
DAV:   2    -0.866518592223E+03   -0.17683E-05   -0.21652E-05  1472   0.662E-03
 487 F= -.86651859E+03 E0= -.86651859E+03  d E =-.165244E-04  mag=     0.0000
 BRION: g(F)=  0.218E-04 g(S)=  0.000E+00 retain N=  2 mean eig= 0.28
 eig:   0.279  0.279
 bond charge predicted
       N       E                     dE             d eps       ncg     rms          rms(c)
DAV:   1    -0.866518597981E+03   -0.75260E-05   -0.17411E-04  1616   0.215E-02    0.404E-03
DAV:   2    -0.866518598329E+03   -0.34860E-06   -0.45836E-06   920   0.341E-03
 488 F= -.86651860E+03 E0= -.86651860E+03  d E =-.610630E-05  mag=     0.0000
 BRION: g(F)=  0.194E-04 g(S)=  0.000E+00 retain N=  1 mean eig= 0.25
 eig:   0.245
 bond charge predicted
       N       E                     dE             d eps       ncg     rms          rms(c)
DAV:   1    -0.866518612981E+03   -0.15000E-04   -0.90218E-04  1632   0.463E-02    0.644E-03
DAV:   2    -0.866518614723E+03   -0.17417E-05   -0.21081E-05  1488   0.656E-03
 489 F= -.86651861E+03 E0= -.86651861E+03  d E =-.163935E-04  mag=     0.0000
 BRION: g(F)=  0.222E-04 g(S)=  0.000E+00 retain N=  2 mean eig= 0.26
 eig:   0.263  0.263
 bond charge predicted
       N       E                     dE             d eps       ncg     rms          rms(c)
DAV:   1    -0.866518620265E+03   -0.72841E-05   -0.17557E-04  1600   0.217E-02    0.398E-03
DAV:   2    -0.866518620623E+03   -0.35785E-06   -0.47235E-06   936   0.345E-03
 490 F= -.86651862E+03 E0= -.86651862E+03  d E =-.590031E-05  mag=     0.0000
 BRION: g(F)=  0.191E-04 g(S)=  0.000E+00 retain N=  1 mean eig= 0.25
 eig:   0.247
 bond charge predicted
       N       E                     dE             d eps       ncg     rms          rms(c)
DAV:   1    -0.866518635207E+03   -0.14941E-04   -0.94742E-04  1648   0.475E-02    0.653E-03
DAV:   2    -0.866518637006E+03   -0.17998E-05   -0.22126E-05  1488   0.669E-03
 491 F= -.86651864E+03 E0= -.86651864E+03  d E =-.163831E-04  mag=     0.0000
 BRION: g(F)=  0.217E-04 g(S)=  0.000E+00 retain N=  2 mean eig= 0.27
 eig:   0.272  0.272
 bond charge predicted
       N       E                     dE             d eps       ncg     rms          rms(c)
DAV:   1    -0.866518642627E+03   -0.74201E-05   -0.17184E-04  1616   0.214E-02    0.402E-03
DAV:   2    -0.866518642975E+03   -0.34855E-06   -0.45478E-06   920   0.340E-03
 492 F= -.86651864E+03 E0= -.86651864E+03  d E =-.596884E-05  mag=     0.0000
 BRION: g(F)=  0.189E-04 g(S)=  0.000E+00 retain N=  1 mean eig= 0.25
 eig:   0.246
 bond charge predicted
       N       E                     dE             d eps       ncg     rms          rms(c)
DAV:   1    -0.866518657299E+03   -0.14672E-04   -0.90584E-04  1632   0.464E-02    0.644E-03
DAV:   2    -0.866518659047E+03   -0.17481E-05   -0.21102E-05  1488   0.655E-03
 493 F= -.86651866E+03 E0= -.86651866E+03  d E =-.160715E-04  mag=     0.0000
 BRION: g(F)=  0.215E-04 g(S)=  0.000E+00 retain N=  2 mean eig= 0.27
 eig:   0.273  0.273
 bond charge predicted
       N       E                     dE             d eps       ncg     rms          rms(c)
DAV:   1    -0.866518664597E+03   -0.72983E-05   -0.17728E-04  1600   0.217E-02    0.400E-03
DAV:   2    -0.866518664952E+03   -0.35535E-06   -0.47105E-06   960   0.345E-03
 494 F= -.86651866E+03 E0= -.86651866E+03  d E =-.590555E-05  mag=     0.0000
 BRION: g(F)=  0.187E-04 g(S)=  0.000E+00 retain N=  1 mean eig= 0.25
 eig:   0.245
 bond charge predicted
       N       E                     dE             d eps       ncg     rms          rms(c)
DAV:   1    -0.866518679195E+03   -0.14598E-04   -0.90591E-04  1648   0.464E-02    0.639E-03
DAV:   2    -0.866518680907E+03   -0.17119E-05   -0.20988E-05  1440   0.652E-03
 495 F= -.86651868E+03 E0= -.86651868E+03  d E =-.159545E-04  mag=     0.0000
 BRION: g(F)=  0.211E-04 g(S)=  0.000E+00 retain N=  2 mean eig= 0.27
 eig:   0.270  0.270
 bond charge predicted
       N       E                     dE             d eps       ncg     rms          rms(c)
DAV:   1    -0.866518686397E+03   -0.72022E-05   -0.16451E-04  1632   0.209E-02    0.394E-03
DAV:   2    -0.866518686727E+03   -0.32980E-06   -0.43151E-06   920   0.330E-03
 496 F= -.86651869E+03 E0= -.86651869E+03  d E =-.582011E-05  mag=     0.0000
 BRION: g(F)=  0.186E-04 g(S)=  0.000E+00 retain N=  1 mean eig= 0.25
 eig:   0.245
 bond charge predicted
       N       E                     dE             d eps       ncg     rms          rms(c)
DAV:   1    -0.866518700831E+03   -0.14434E-04   -0.88163E-04  1632   0.457E-02    0.636E-03
DAV:   2    -0.866518702536E+03   -0.17049E-05   -0.20585E-05  1456   0.647E-03
 497 F= -.86651870E+03 E0= -.86651870E+03  d E =-.158089E-04  mag=     0.0000
 BRION: g(F)=  0.210E-04 g(S)=  0.000E+00 retain N=  2 mean eig= 0.28
 eig:   0.277  0.277
 bond charge predicted
       N       E                     dE             d eps       ncg     rms          rms(c)
DAV:   1    -0.866518707253E+03   -0.64226E-05   -0.17427E-04  1616   0.216E-02    0.396E-03
DAV:   2    -0.866518707602E+03   -0.34808E-06   -0.46490E-06   936   0.343E-03
 498 F= -.86651871E+03 E0= -.86651871E+03  d E =-.506576E-05  mag=     0.0000
 BRION: g(F)=  0.184E-04 g(S)=  0.000E+00 retain N=  1 mean eig= 0.25
 eig:   0.246
 bond charge predicted
       N       E                     dE             d eps       ncg     rms          rms(c)
DAV:   1    -0.866518721700E+03   -0.14447E-04   -0.87690E-04  1648   0.458E-02    0.634E-03
DAV:   2    -0.866518723375E+03   -0.16748E-05   -0.20623E-05  1440   0.647E-03
 499 F= -.86651872E+03 E0= -.86651872E+03  d E =-.157733E-04  mag=     0.0000
 BRION: g(F)=  0.210E-04 g(S)=  0.000E+00 retain N=  2 mean eig= 0.27
 eig:   0.267  0.267
 bond charge predicted
       N       E                     dE             d eps       ncg     rms          rms(c)
DAV:   1    -0.866518728661E+03   -0.69605E-05   -0.15984E-04  1616   0.206E-02    0.389E-03
DAV:   2    -0.866518728990E+03   -0.32948E-06   -0.42697E-06   920   0.329E-03
 500 F= -.86651873E+03 E0= -.86651873E+03  d E =-.561515E-05  mag=     0.0000
 BRION: g(F)=  0.183E-04 g(S)=  0.000E+00 retain N=  1 mean eig= 0.24
 eig:   0.245
--------------------------------------------------------
>>>  Job finished at Wed Jul  6 05:53:23 EDT 2022
