    3    3  500    2
  0.7971799E+03  0.1367500E-08  0.1367500E-08  0.1476700E-08  0.5000000E-15
  1.000000000000000E-004
  CAR 
 SiO2                                    
     16      1     16
 
  0.0000000E+00  0.0000000E+00  0.0000000E+00  0.1000000E+01
    1      -28.339995    -28.339995   1.000000   1.000000
    2      -20.450056    -20.450056   1.000000   1.000000
    3      -13.258470    -13.258470   1.000000   1.000000
    4      -11.512938    -11.512938   1.000000   1.000000
    5      -11.441873    -11.441873   1.000000   1.000000
    6      -11.441743    -11.441743   1.000000   1.000000
    7       -7.369658     -7.369658   1.000000   1.000000
    8       -7.369620     -7.369620   1.000000   1.000000
    9       -1.897171     -1.897171   0.000000   0.000000
   10       -1.897102     -1.897102   0.000000   0.000000
   11       -0.616005     -0.616005   0.000000   0.000000
   12        0.249091      0.249091   0.000000   0.000000
   13        0.366270      0.366267   0.000000   0.000000
   14        0.541245      0.541245   0.000000   0.000000
   15        0.751722      0.751721   0.000000   0.000000
   16        0.756017      0.756017   0.000000   0.000000
