>>>  VASP 5.4.4 with BEEF-vdw and vtst
--------------------------------------------------------
>>>  Job information
     SLURM_JOBID=8841820
     SLURM_JOB_NODELIST=cpn-u23-29
     SLURM_NNODES=1
     SLURMTMPDIR=/scratch/8841820
     working directory = /projects/academic/ericwalk/ruthbell/Ads_Ag-SSZ13/COS_gas/PBE
--------------------------------------------------------
>>>  Module information
--------------------------------------------------------
>>>  Running Configuration
NPROCS=16
--------------------------------------------------------
>>>  Job started at Tue Jul  5 12:57:51 EDT 2022
--------------------------------------------------------
 running on   16 total cores
 distrk:  each k-point on   16 cores,    1 groups
 distr:  one band on    4 cores,    4 groups
 using from now: INCAR     
 vasp.5.4.4.18Apr17-6-g9f103f2a35 (build Dec 31 2018 11:41:54) complex          
  
 POSCAR found type information on POSCAR  O  S  C 
 POSCAR found :  3 types and       3 ions
 scaLAPACK will be used

 ----------------------------------------------------------------------------- 
|                                                                             |
|  ADVICE TO THIS USER RUNNING 'VASP/VAMP'   (HEAR YOUR MASTER'S VOICE ...):  |
|                                                                             |
|      You have a (more or less) 'small supercell' and for smaller cells      |
|      it is recommended  to use the reciprocal-space projection scheme!      |
|      The real space optimization is not  efficient for small cells and it   |
|      is also less accurate ...                                              |
|      Therefore set LREAL=.FALSE. in the  INCAR file                         |
|                                                                             |
 ----------------------------------------------------------------------------- 

 LDA part: xc-table for Pade appr. of Perdew
 POSCAR found type information on POSCAR  O  S  C 
 POSCAR found :  3 types and       3 ions
 POSCAR, INCAR and KPOINTS ok, starting setup
 FFT: planning ...
 WAVECAR not read
 entering main loop
       N       E                     dE             d eps       ncg     rms          rms(c)
DAV:   1     0.974443517368E+02    0.97444E+02   -0.35187E+03    96   0.399E+02
DAV:   2     0.798336131469E+01   -0.89461E+02   -0.82860E+02   112   0.107E+02
DAV:   3    -0.180947289226E+02   -0.26078E+02   -0.25125E+02    96   0.567E+01
DAV:   4    -0.201420599247E+02   -0.20473E+01   -0.19944E+01    80   0.175E+01
DAV:   5    -0.201760095437E+02   -0.33950E-01   -0.33906E-01    80   0.245E+00    0.118E+01
DAV:   6    -0.110542059039E+02    0.91218E+01   -0.10297E+01    72   0.217E+01    0.423E+00
DAV:   7    -0.149359669411E+02   -0.38818E+01   -0.25684E+00    80   0.933E+00    0.218E+00
DAV:   8    -0.172779801659E+02   -0.23420E+01   -0.14657E+00    96   0.516E+00    0.853E-01
DAV:   9    -0.177621732925E+02   -0.48419E+00   -0.10420E-01    72   0.166E+00    0.504E-01
DAV:  10    -0.183574927531E+02   -0.59532E+00   -0.50880E-02    80   0.973E-01    0.256E-01
DAV:  11    -0.188197248210E+02   -0.46223E+00   -0.42186E-02    64   0.764E-01    0.112E-01
DAV:  12    -0.188839389744E+02   -0.64214E-01   -0.37380E-03    88   0.275E-01    0.740E-02
DAV:  13    -0.189853528959E+02   -0.10141E+00   -0.52877E-03    80   0.265E-01    0.395E-02
DAV:  14    -0.189953704331E+02   -0.10018E-01   -0.72502E-04    88   0.112E-01    0.189E-02
DAV:  15    -0.189990337583E+02   -0.36633E-02   -0.26507E-04    72   0.706E-02    0.122E-02
DAV:  16    -0.189985621414E+02    0.47162E-03   -0.18073E-04    72   0.632E-02    0.954E-03
DAV:  17    -0.190004060337E+02   -0.18439E-02   -0.84577E-05    72   0.433E-02    0.694E-03
DAV:  18    -0.190030583100E+02   -0.26523E-02   -0.63797E-05    64   0.326E-02    0.389E-03
DAV:  19    -0.190040210737E+02   -0.96276E-03   -0.14884E-05    64   0.163E-02    0.185E-03
DAV:  20    -0.190042693287E+02   -0.24826E-03   -0.27361E-06    72   0.814E-03    0.113E-03
DAV:  21    -0.190042593157E+02    0.10013E-04   -0.11528E-06    72   0.568E-03    0.734E-04
DAV:  22    -0.190042677340E+02   -0.84184E-05   -0.71824E-07    56   0.413E-03
   1 F= -.19004268E+02 E0= -.19004268E+02  d E =-.190043E+02  mag=     0.0005
 BRION: g(F)=  0.164E+02 g(S)=  0.000E+00
 bond charge predicted
       N       E                     dE             d eps       ncg     rms          rms(c)
DAV:   1     0.381499591280E+03    0.40050E+03   -0.15467E+03    64   0.299E+02    0.181E+01
DAV:   2     0.379796295101E+03   -0.17033E+01   -0.11536E+02    80   0.764E+01    0.162E+01
DAV:   3     0.385631020807E+03    0.58347E+01   -0.13047E+01    96   0.248E+01    0.360E+00
DAV:   4     0.386398812851E+03    0.76779E+00   -0.38466E+00    96   0.123E+01    0.343E+00
DAV:   5     0.386630733331E+03    0.23192E+00   -0.79809E-01    96   0.510E+00    0.140E+00
DAV:   6     0.386725941089E+03    0.95208E-01   -0.33666E-01   112   0.317E+00    0.768E-01
DAV:   7     0.386703360633E+03   -0.22580E-01   -0.34557E-02    80   0.958E-01    0.494E-01
DAV:   8     0.386696018177E+03   -0.73425E-02   -0.33514E-02    96   0.111E+00    0.170E-01
DAV:   9     0.386683502618E+03   -0.12516E-01   -0.13029E-02   112   0.530E-01    0.170E-01
DAV:  10     0.386674090890E+03   -0.94117E-02   -0.43440E-03    96   0.303E-01    0.803E-02
DAV:  11     0.386669102123E+03   -0.49888E-02   -0.23933E-03    64   0.259E-01    0.612E-02
DAV:  12     0.386666917259E+03   -0.21849E-02   -0.80139E-04    96   0.147E-01    0.377E-02
DAV:  13     0.386665625904E+03   -0.12914E-02   -0.42552E-04    72   0.117E-01    0.206E-02
DAV:  14     0.386664939716E+03   -0.68619E-03   -0.18471E-04    72   0.620E-02    0.149E-02
DAV:  15     0.386664678218E+03   -0.26150E-03   -0.48134E-05    80   0.470E-02    0.663E-03
DAV:  16     0.386664328755E+03   -0.34946E-03   -0.40395E-05    80   0.366E-02    0.756E-03
DAV:  17     0.386664165183E+03   -0.16357E-03   -0.27848E-05    80   0.314E-02    0.485E-03
DAV:  18     0.386664088241E+03   -0.76941E-04   -0.11529E-05    80   0.192E-02    0.535E-03
DAV:  19     0.386664061469E+03   -0.26772E-04   -0.45236E-06    64   0.110E-02    0.564E-03
DAV:  20     0.386664070815E+03    0.93458E-05   -0.31440E-06    64   0.852E-03
   2 F= 0.38666407E+03 E0= 0.38666407E+03  d E =0.405668E+03  mag=     0.0000
 BRION: g(F)=  0.598E+06 g(S)=  0.000E+00 retain N=  1 mean eig= 0.00
 eig:   0.004
 bond charge predicted
       N       E                     dE             d eps       ncg     rms          rms(c)
DAV:   1    -0.259825936295E+02   -0.41265E+03   -0.18473E+03    64   0.253E+02    0.199E+01
DAV:   2    -0.191971086857E+02    0.67855E+01   -0.49097E+01    96   0.468E+01    0.106E+01
DAV:   3    -0.167857444001E+02    0.24114E+01   -0.12739E+01    80   0.224E+01    0.364E+00
DAV:   4    -0.166829599623E+02    0.10278E+00   -0.15488E+00    96   0.104E+01    0.251E+00
DAV:   5    -0.164714539151E+02    0.21151E+00   -0.22349E-01    80   0.450E+00    0.700E-01
DAV:   6    -0.164525198685E+02    0.18934E-01   -0.73751E-02    80   0.164E+00    0.310E-01
DAV:   7    -0.164488813706E+02    0.36385E-02   -0.45722E-03    80   0.728E-01    0.328E-01
DAV:   8    -0.164576305035E+02   -0.87491E-02   -0.24240E-02    64   0.102E+00    0.321E-01
DAV:   9    -0.164597823668E+02   -0.21519E-02   -0.45383E-03    80   0.646E-01    0.101E-01
DAV:  10    -0.164660706451E+02   -0.62883E-02   -0.35546E-03    80   0.381E-01    0.780E-02
DAV:  11    -0.164684767783E+02   -0.24061E-02   -0.76424E-04    80   0.161E-01    0.566E-02
DAV:  12    -0.164705148743E+02   -0.20381E-02   -0.36481E-04    96   0.938E-02    0.301E-02
DAV:  13    -0.164713745428E+02   -0.85967E-03   -0.14419E-04    96   0.848E-02    0.226E-02
DAV:  14    -0.164720574154E+02   -0.68287E-03   -0.45595E-05    96   0.402E-02    0.251E-02
DAV:  15    -0.164725964062E+02   -0.53899E-03   -0.49904E-05    80   0.479E-02    0.726E-03
DAV:  16    -0.164727261468E+02   -0.12974E-03   -0.10869E-05    64   0.230E-02    0.703E-03
DAV:  17    -0.164729221432E+02   -0.19600E-03   -0.74821E-06    64   0.144E-02    0.474E-03
DAV:  18    -0.164730309894E+02   -0.10885E-03   -0.64942E-06    64   0.131E-02    0.174E-03
DAV:  19    -0.164730507045E+02   -0.19715E-04   -0.14035E-06    80   0.678E-03    0.118E-03
DAV:  20    -0.164730762203E+02   -0.25516E-04   -0.11692E-06    64   0.420E-03    0.627E-04
DAV:  21    -0.164730817633E+02   -0.55430E-05   -0.39405E-07    80   0.281E-03
   3 F= -.16473082E+02 E0= -.16473082E+02  d E =-.403137E+03  mag=    -0.0000
 BRION: g(F)=  0.360E+01 g(S)=  0.000E+00 retain N=  1 mean eig= 0.00
 eig:   0.004
 bond charge predicted
       N       E                     dE             d eps       ncg     rms          rms(c)
DAV:   1    -0.184009329650E+02   -0.19279E+01   -0.16295E+02    64   0.815E+01    0.359E+00
DAV:   2    -0.188211723952E+02   -0.42024E+00   -0.59387E+00    80   0.158E+01    0.235E+00
DAV:   3    -0.187657413843E+02    0.55431E-01   -0.22400E-01    80   0.360E+00    0.141E+00
DAV:   4    -0.187502251921E+02    0.15516E-01   -0.14492E-01    64   0.179E+00    0.362E-01
DAV:   5    -0.187510668288E+02   -0.84164E-03   -0.43836E-03    80   0.492E-01    0.165E-01
DAV:   6    -0.187517730078E+02   -0.70618E-03   -0.28295E-03    80   0.293E-01    0.658E-02
DAV:   7    -0.187527554236E+02   -0.98242E-03   -0.43276E-04    64   0.124E-01    0.308E-02
DAV:   8    -0.187539570621E+02   -0.12016E-02   -0.13039E-04    64   0.668E-02    0.183E-02
DAV:   9    -0.187552453891E+02   -0.12883E-02   -0.19242E-04    64   0.623E-02    0.112E-02
DAV:  10    -0.187560441219E+02   -0.79873E-03   -0.10906E-04    80   0.439E-02    0.585E-03
DAV:  11    -0.187562422377E+02   -0.19812E-03   -0.28550E-05    96   0.214E-02    0.344E-03
DAV:  12    -0.187564289854E+02   -0.18675E-03   -0.12200E-05    80   0.169E-02    0.266E-03
DAV:  13    -0.187564663489E+02   -0.37364E-04   -0.26755E-06    80   0.851E-03    0.157E-03
DAV:  14    -0.187565262090E+02   -0.59860E-04   -0.27400E-06    64   0.839E-03    0.132E-03
DAV:  15    -0.187565411630E+02   -0.14954E-04   -0.10160E-06    64   0.652E-03    0.965E-04
DAV:  16    -0.187565513471E+02   -0.10184E-04   -0.39546E-07    48   0.319E-03    0.482E-04
DAV:  17    -0.187565632122E+02   -0.11865E-04   -0.35176E-07    64   0.266E-03    0.568E-04
DAV:  18    -0.187565648656E+02   -0.16534E-05   -0.78291E-08    80   0.131E-03
   4 F= -.18756565E+02 E0= -.18756565E+02  d E =-.228348E+01  mag=    -0.0000
 BRION: g(F)=  0.320E+01 g(S)=  0.000E+00 retain N=  1 mean eig= 1.02
 eig:   1.016
 bond charge predicted
       N       E                     dE             d eps       ncg     rms          rms(c)
DAV:   1    -0.161482472486E+02    0.26083E+01   -0.55645E+02    64   0.162E+02    0.623E+00
DAV:   2    -0.172804768712E+02   -0.11322E+01   -0.21697E+01    96   0.327E+01    0.399E+00
DAV:   3    -0.169790221045E+02    0.30145E+00   -0.12467E+00    64   0.639E+00    0.214E+00
DAV:   4    -0.168694129254E+02    0.10961E+00   -0.28547E-01    80   0.329E+00    0.830E-01
DAV:   5    -0.168646424211E+02    0.47705E-02   -0.10993E-01    96   0.188E+00    0.274E-01
DAV:   6    -0.168637991786E+02    0.84324E-03   -0.10008E-02    64   0.589E-01    0.127E-01
DAV:   7    -0.168651601216E+02   -0.13609E-02   -0.10498E-03    64   0.177E-01    0.353E-02
DAV:   8    -0.168660302988E+02   -0.87018E-03   -0.17357E-04    96   0.835E-02    0.199E-02
DAV:   9    -0.168667098410E+02   -0.67954E-03   -0.79561E-05    64   0.461E-02    0.132E-02
DAV:  10    -0.168674501739E+02   -0.74033E-03   -0.16969E-04    96   0.544E-02    0.831E-03
DAV:  11    -0.168680209781E+02   -0.57080E-03   -0.91940E-05    80   0.385E-02    0.426E-03
DAV:  12    -0.168681284672E+02   -0.10749E-03   -0.47076E-06    80   0.108E-02    0.322E-03
DAV:  13    -0.168684608625E+02   -0.33240E-03   -0.29997E-05    80   0.199E-02    0.264E-03
DAV:  14    -0.168684898225E+02   -0.28960E-04   -0.12385E-06    80   0.701E-03    0.142E-03
DAV:  15    -0.168685304205E+02   -0.40598E-04   -0.21884E-06    80   0.695E-03    0.116E-03
DAV:  16    -0.168685590481E+02   -0.28628E-04   -0.14595E-06    80   0.532E-03    0.665E-04
DAV:  17    -0.168685659577E+02   -0.69096E-05   -0.43518E-07    48   0.326E-03
   5 F= -.16868566E+02 E0= -.16868566E+02  d E =0.188800E+01  mag=    -0.0000
 BRION: g(F)=  0.500E+02 g(S)=  0.000E+00 retain N=  2 mean eig= 1.83
 eig:   2.945  0.710
 bond charge predicted
       N       E                     dE             d eps       ncg     rms          rms(c)
DAV:   1    -0.153792412754E+02    0.14893E+01   -0.97278E+02    80   0.192E+02    0.102E+01
DAV:   2    -0.168109442050E+02   -0.14317E+01   -0.48557E+01    64   0.425E+01    0.442E+00
DAV:   3    -0.167460845404E+02    0.64860E-01   -0.16158E+00    80   0.891E+00    0.242E+00
DAV:   4    -0.167121766109E+02    0.33908E-01   -0.10988E-01    80   0.261E+00    0.130E+00
DAV:   5    -0.167094727635E+02    0.27038E-02   -0.42032E-02    64   0.118E+00    0.239E-01
DAV:   6    -0.167109772602E+02   -0.15045E-02   -0.50243E-03    80   0.432E-01    0.118E-01
DAV:   7    -0.167136909819E+02   -0.27137E-02   -0.19980E-03    64   0.239E-01    0.464E-02
DAV:   8    -0.167152208797E+02   -0.15299E-02   -0.27516E-04    96   0.881E-02    0.219E-02
DAV:   9    -0.167167755846E+02   -0.15547E-02   -0.29058E-04    80   0.702E-02    0.173E-02
DAV:  10    -0.167175107511E+02   -0.73517E-03   -0.10191E-04    96   0.432E-02    0.130E-02
DAV:  11    -0.167183434661E+02   -0.83272E-03   -0.17370E-04    96   0.453E-02    0.637E-03
DAV:  12    -0.167185489644E+02   -0.20550E-03   -0.12113E-05    96   0.166E-02    0.476E-03
DAV:  13    -0.167187687678E+02   -0.21980E-03   -0.13539E-05    96   0.155E-02    0.275E-03
DAV:  14    -0.167188392522E+02   -0.70484E-04   -0.22926E-06    48   0.811E-03    0.170E-03
DAV:  15    -0.167188796418E+02   -0.40390E-04   -0.20586E-06    64   0.762E-03    0.903E-04
DAV:  16    -0.167188955746E+02   -0.15933E-04   -0.86079E-07    48   0.497E-03    0.700E-04
DAV:  17    -0.167189125526E+02   -0.16978E-04   -0.81007E-07    48   0.381E-03    0.500E-04
DAV:  18    -0.167189161446E+02   -0.35920E-05   -0.23976E-07    80   0.226E-03
   6 F= -.16718916E+02 E0= -.16718916E+02  d E =0.149650E+00  mag=     0.0000
 BRION: g(F)=  0.203E+01 g(S)=  0.000E+00 retain N=  1 mean eig= 0.33
 eig:   0.330
 bond charge predicted
       N       E                     dE             d eps       ncg     rms          rms(c)
DAV:   1    -0.178446747105E+02   -0.11258E+01   -0.84907E+01    64   0.535E+01    0.337E+00
DAV:   2    -0.178802620732E+02   -0.35587E-01   -0.27089E+00    80   0.108E+01    0.231E+00
DAV:   3    -0.178222270746E+02    0.58035E-01   -0.15648E-01    80   0.347E+00    0.124E+00
DAV:   4    -0.177969029052E+02    0.25324E-01   -0.90434E-02    64   0.186E+00    0.281E-01
DAV:   5    -0.177965984998E+02    0.30441E-03   -0.48438E-03    80   0.534E-01    0.149E-01
DAV:   6    -0.177983287427E+02   -0.17302E-02   -0.24264E-03    64   0.301E-01    0.917E-02
DAV:   7    -0.178001239638E+02   -0.17952E-02   -0.80814E-04    64   0.159E-01    0.396E-02
DAV:   8    -0.178020150232E+02   -0.18911E-02   -0.26605E-04    64   0.949E-02    0.233E-02
DAV:   9    -0.178040520360E+02   -0.20370E-02   -0.44190E-04    72   0.942E-02    0.186E-02
DAV:  10    -0.178052909740E+02   -0.12389E-02   -0.26008E-04    64   0.695E-02    0.104E-02
DAV:  11    -0.178055206869E+02   -0.22971E-03   -0.35534E-05    96   0.300E-02    0.580E-03
DAV:  12    -0.178057266829E+02   -0.20600E-03   -0.17306E-05    96   0.205E-02    0.470E-03
DAV:  13    -0.178058312160E+02   -0.10453E-03   -0.61633E-06    80   0.117E-02    0.184E-03
DAV:  14    -0.178059262277E+02   -0.95012E-04   -0.55477E-06    48   0.925E-03    0.126E-03
DAV:  15    -0.178059488455E+02   -0.22618E-04   -0.13091E-06    64   0.520E-03    0.808E-04
DAV:  16    -0.178059644728E+02   -0.15627E-04   -0.51099E-07    80   0.344E-03    0.459E-04
DAV:  17    -0.178059745701E+02   -0.10097E-04   -0.34415E-07    64   0.255E-03    0.386E-04
DAV:  18    -0.178059776605E+02   -0.30904E-05   -0.10822E-07    80   0.145E-03
   7 F= -.17805978E+02 E0= -.17805978E+02  d E =-.108706E+01  mag=    -0.0000
 BRION: g(F)=  0.673E+01 g(S)=  0.000E+00 retain N=  2 mean eig= 2.47
 eig:   0.184  4.753
 bond charge predicted
       N       E                     dE             d eps       ncg     rms          rms(c)
DAV:   1    -0.192555260296E+02   -0.14496E+01   -0.79201E+01    64   0.606E+01    0.248E+00
DAV:   2    -0.193678381359E+02   -0.11231E+00   -0.22845E+00    80   0.109E+01    0.122E+00
DAV:   3    -0.193444554817E+02    0.23383E-01   -0.69228E-02    80   0.242E+00    0.745E-01
DAV:   4    -0.193379652131E+02    0.64903E-02   -0.36710E-02    80   0.103E+00    0.250E-01
DAV:   5    -0.193391697163E+02   -0.12045E-02   -0.36629E-03    80   0.327E-01    0.884E-02
DAV:   6    -0.193393766796E+02   -0.20696E-03   -0.10705E-03    64   0.174E-01    0.294E-02
DAV:   7    -0.193396009645E+02   -0.22428E-03   -0.53126E-05    80   0.445E-02    0.108E-02
DAV:   8    -0.193398653296E+02   -0.26437E-03   -0.15778E-05    64   0.184E-02    0.507E-03
DAV:   9    -0.193401396428E+02   -0.27431E-03   -0.29228E-05    64   0.206E-02    0.440E-03
DAV:  10    -0.193402668795E+02   -0.12724E-03   -0.64081E-06    48   0.121E-02    0.173E-03
DAV:  11    -0.193403650453E+02   -0.98166E-04   -0.10416E-05    48   0.113E-02    0.161E-03
DAV:  12    -0.193404304233E+02   -0.65378E-04   -0.37253E-06    80   0.801E-03    0.965E-04
DAV:  13    -0.193404558173E+02   -0.25394E-04   -0.18901E-06    64   0.585E-03    0.644E-04
DAV:  14    -0.193404662673E+02   -0.10450E-04   -0.65178E-07    80   0.385E-03    0.411E-04
DAV:  15    -0.193404797938E+02   -0.13527E-04   -0.59950E-07    48   0.298E-03    0.414E-04
DAV:  16    -0.193404812866E+02   -0.14928E-05   -0.12594E-07    64   0.160E-03
   8 F= -.19340481E+02 E0= -.19340481E+02  d E =-.153450E+01  mag=    -0.0000
 BRION: g(F)=  0.291E+01 g(S)=  0.000E+00 retain N=  2 mean eig= 1.12
 eig:   1.124  1.124
 bond charge predicted
       N       E                     dE             d eps       ncg     rms          rms(c)
DAV:   1    -0.195045089394E+02   -0.16403E+00   -0.12111E+02    64   0.780E+01    0.297E+00
DAV:   2    -0.196868816682E+02   -0.18237E+00   -0.35786E+00    80   0.131E+01    0.153E+00
DAV:   3    -0.196382813123E+02    0.48600E-01   -0.10701E-01    96   0.243E+00    0.836E-01
DAV:   4    -0.196232044512E+02    0.15077E-01   -0.63800E-02    96   0.156E+00    0.206E-01
DAV:   5    -0.196235544239E+02   -0.34997E-03   -0.25061E-03    80   0.312E-01    0.103E-01
DAV:   6    -0.196239839856E+02   -0.42956E-03   -0.66750E-04    80   0.130E-01    0.203E-02
DAV:   7    -0.196243375383E+02   -0.35355E-03   -0.27451E-05    96   0.442E-02    0.152E-02
DAV:   8    -0.196249876418E+02   -0.65010E-03   -0.75713E-05    64   0.399E-02    0.101E-02
DAV:   9    -0.196257949529E+02   -0.80731E-03   -0.12056E-04    80   0.452E-02    0.688E-03
DAV:  10    -0.196261616212E+02   -0.36667E-03   -0.41616E-05    80   0.262E-02    0.319E-03
DAV:  11    -0.196263236226E+02   -0.16200E-03   -0.91221E-06    64   0.149E-02    0.223E-03
DAV:  12    -0.196264169525E+02   -0.93330E-04   -0.99390E-06    96   0.130E-02    0.137E-03
DAV:  13    -0.196264454312E+02   -0.28479E-04   -0.12575E-06    64   0.806E-03    0.875E-04
DAV:  14    -0.196264738636E+02   -0.28432E-04   -0.10421E-06    64   0.439E-03    0.646E-04
DAV:  15    -0.196264933804E+02   -0.19517E-04   -0.77765E-07    48   0.377E-03    0.402E-04
DAV:  16    -0.196264977741E+02   -0.43937E-05   -0.17367E-07    64   0.214E-03
   9 F= -.19626498E+02 E0= -.19626498E+02  d E =-.286016E+00  mag=    -0.0000
 BRION: g(F)=  0.397E+01 g(S)=  0.000E+00 retain N=  2 mean eig= 3.36
 eig:   0.719  5.994
 bond charge predicted
       N       E                     dE             d eps       ncg     rms          rms(c)
DAV:   1    -0.194599105922E+02    0.16658E+00   -0.86539E+00    64   0.184E+01    0.146E+00
DAV:   2    -0.194167040792E+02    0.43207E-01   -0.30992E-01    96   0.414E+00    0.766E-01
DAV:   3    -0.194078651505E+02    0.88389E-02   -0.32539E-02    80   0.137E+00    0.347E-01
DAV:   4    -0.194045871436E+02    0.32780E-02   -0.58061E-03    96   0.536E-01    0.114E-01
DAV:   5    -0.194045859592E+02    0.11844E-05   -0.86225E-04    64   0.201E-01    0.446E-02
DAV:   6    -0.194053907078E+02   -0.80475E-03   -0.26769E-04    64   0.101E-01    0.204E-02
DAV:   7    -0.194060416875E+02   -0.65098E-03   -0.90980E-05    64   0.601E-02    0.116E-02
DAV:   8    -0.194067832788E+02   -0.74159E-03   -0.12662E-04    64   0.526E-02    0.924E-03
DAV:   9    -0.194070530097E+02   -0.26973E-03   -0.22549E-05    80   0.233E-02    0.631E-03
DAV:  10    -0.194072857357E+02   -0.23273E-03   -0.26528E-05    80   0.260E-02    0.419E-03
DAV:  11    -0.194073723630E+02   -0.86627E-04   -0.72754E-06    64   0.138E-02    0.217E-03
DAV:  12    -0.194074239126E+02   -0.51550E-04   -0.43666E-06    80   0.111E-02    0.115E-03
DAV:  13    -0.194074424029E+02   -0.18490E-04   -0.22207E-06    80   0.829E-03    0.123E-03
DAV:  14    -0.194074557231E+02   -0.13320E-04   -0.67208E-07    48   0.420E-03    0.648E-04
DAV:  15    -0.194074666393E+02   -0.10916E-04   -0.49018E-07    64   0.331E-03    0.555E-04
DAV:  16    -0.194074691673E+02   -0.25280E-05   -0.94043E-08    64   0.156E-03
  10 F= -.19407469E+02 E0= -.19407469E+02  d E =0.219029E+00  mag=    -0.0000
 BRION: g(F)=  0.435E+01 g(S)=  0.000E+00 retain N=  2 mean eig= 0.22
 eig:   0.223  0.223
 bond charge predicted
       N       E                     dE             d eps       ncg     rms          rms(c)
DAV:   1    -0.199016675033E+02   -0.49420E+00   -0.40004E+01    64   0.428E+01    0.244E+00
DAV:   2    -0.198349281519E+02    0.66739E-01   -0.13656E+00    80   0.852E+00    0.103E+00
DAV:   3    -0.198215933873E+02    0.13335E-01   -0.64707E-02    80   0.217E+00    0.524E-01
DAV:   4    -0.198203135606E+02    0.12798E-02   -0.14606E-02    80   0.785E-01    0.229E-01
DAV:   5    -0.198209171657E+02   -0.60361E-03   -0.18920E-03    64   0.287E-01    0.713E-02
DAV:   6    -0.198212445645E+02   -0.32740E-03   -0.25148E-04    64   0.131E-01    0.220E-02
DAV:   7    -0.198214912094E+02   -0.24664E-03   -0.68721E-05    64   0.530E-02    0.104E-02
DAV:   8    -0.198217128709E+02   -0.22166E-03   -0.22645E-05    64   0.241E-02    0.492E-03
DAV:   9    -0.198219454088E+02   -0.23254E-03   -0.30630E-05    80   0.218E-02    0.567E-03
DAV:  10    -0.198220266514E+02   -0.81243E-04   -0.42369E-06    80   0.991E-03    0.269E-03
DAV:  11    -0.198221073496E+02   -0.80698E-04   -0.95759E-06    64   0.122E-02    0.182E-03
DAV:  12    -0.198221302863E+02   -0.22937E-04   -0.16256E-06    80   0.609E-03    0.129E-03
DAV:  13    -0.198221521482E+02   -0.21862E-04   -0.14802E-06    64   0.508E-03    0.651E-04
DAV:  14    -0.198221576790E+02   -0.55308E-05   -0.33780E-07    80   0.282E-03
  11 F= -.19822158E+02 E0= -.19822158E+02  d E =-.414689E+00  mag=     0.0000
 BRION: g(F)=  0.150E+00 g(S)=  0.000E+00 retain N=  2 mean eig= 0.43
 eig:   0.177  0.690
 bond charge predicted
       N       E                     dE             d eps       ncg     rms          rms(c)
DAV:   1    -0.198414265856E+02   -0.19274E-01   -0.11803E+00    64   0.760E+00    0.335E-01
DAV:   2    -0.198417792449E+02   -0.35266E-03   -0.33228E-02    96   0.128E+00    0.145E-01
DAV:   3    -0.198414637993E+02    0.31545E-03   -0.10481E-03    80   0.287E-01    0.813E-02
DAV:   4    -0.198414686052E+02   -0.48058E-05   -0.47890E-04    80   0.131E-01    0.304E-02
DAV:   5    -0.198415001711E+02   -0.31566E-04   -0.35859E-05    64   0.406E-02    0.995E-03
DAV:   6    -0.198415112303E+02   -0.11059E-04   -0.35585E-06    48   0.164E-02    0.401E-03
DAV:   7    -0.198415183484E+02   -0.71181E-05   -0.11928E-06    64   0.662E-03
  12 F= -.19841518E+02 E0= -.19841518E+02  d E =-.193607E-01  mag=     0.0000
 BRION: g(F)=  0.511E-02 g(S)=  0.000E+00 retain N=  2 mean eig= 0.54
 eig:   0.302  0.772
 bond charge predicted
       N       E                     dE             d eps       ncg     rms          rms(c)
DAV:   1    -0.198422795472E+02   -0.76832E-03   -0.61391E-02    64   0.172E+00    0.795E-02
DAV:   2    -0.198422742560E+02    0.52912E-05   -0.17924E-03    64   0.301E-01    0.338E-02
DAV:   3    -0.198422611288E+02    0.13127E-04   -0.60108E-05    80   0.694E-02    0.188E-02
DAV:   4    -0.198422724094E+02   -0.11281E-04   -0.25832E-05    64   0.299E-02    0.759E-03
DAV:   5    -0.198422827794E+02   -0.10370E-04   -0.22411E-06    48   0.107E-02    0.239E-03
DAV:   6    -0.198422885413E+02   -0.57618E-05   -0.31662E-07    64   0.491E-03
  13 F= -.19842289E+02 E0= -.19842289E+02  d E =-.770193E-03  mag=     0.0000
 BRION: g(F)=  0.381E-04 g(S)=  0.000E+00 retain N=  1 mean eig= 0.27
 eig:   0.273
 bond charge predicted
       N       E                     dE             d eps       ncg     rms          rms(c)
DAV:   1    -0.198421921010E+02    0.90678E-04   -0.53990E-03    80   0.505E-01    0.290E-02
DAV:   2    -0.198421813603E+02    0.10741E-04   -0.17348E-04    80   0.984E-02    0.196E-02
DAV:   3    -0.198421806484E+02    0.71189E-06   -0.12651E-05    80   0.300E-02
  14 F= -.19842181E+02 E0= -.19842181E+02  d E =0.107893E-03  mag=     0.0000
 BRION: g(F)=  0.205E-02 g(S)=  0.000E+00 retain N=  2 mean eig= 0.18
 eig:   0.181  0.181
 bond charge predicted
       N       E                     dE             d eps       ncg     rms          rms(c)
DAV:   1    -0.198423130355E+02   -0.13168E-03   -0.44697E-03    80   0.464E-01    0.245E-02
DAV:   2    -0.198423092173E+02    0.38182E-05   -0.13796E-04    64   0.856E-02    0.165E-02
DAV:   3    -0.198423084691E+02    0.74814E-06   -0.92038E-06    80   0.254E-02
  15 F= -.19842308E+02 E0= -.19842308E+02  d E =-.127821E-03  mag=     0.0000
 BRION: g(F)=  0.118E-04 g(S)=  0.000E+00 retain N=  1 mean eig= 0.12
 eig:   0.117
 bond charge predicted
       N       E                     dE             d eps       ncg     rms          rms(c)
DAV:   1    -0.198423096318E+02   -0.41458E-06   -0.32121E-05    80   0.393E-02    0.340E-03
DAV:   2    -0.198423096597E+02   -0.27813E-07   -0.13464E-06    80   0.106E-02
  16 F= -.19842310E+02 E0= -.19842310E+02  d E =-.119053E-05  mag=     0.0000
 BRION: g(F)=  0.100E-04 g(S)=  0.000E+00 retain N=  1 mean eig= 0.08
 eig:   0.076
 bond charge predicted
       N       E                     dE             d eps       ncg     rms          rms(c)
DAV:   1    -0.198423106346E+02   -0.10027E-05   -0.49104E-05    80   0.482E-02    0.277E-03
DAV:   2    -0.198423111607E+02   -0.52611E-06   -0.17412E-06    64   0.104E-02
  17 F= -.19842311E+02 E0= -.19842311E+02  d E =-.150103E-05  mag=     0.0000
 BRION: g(F)=  0.558E-05 g(S)=  0.000E+00 retain N=  2 mean eig= 0.37
 eig:   0.185  0.558
 reached required accuracy - stopping structural energy minimisation
--------------------------------------------------------
>>>  Job finished at Tue Jul  5 13:05:41 EDT 2022
