 vasp.5.4.4.18Apr17-6-g9f103f2a35 (build Dec 31 2018 11:41:54) complex          
  
 executed on             LinuxIFC date 2022.07.05  12:57:52
 running on   16 total cores
 distrk:  each k-point on   16 cores,    1 groups
 distr:  one band on NCORES_PER_BAND=   4 cores,    4 groups


--------------------------------------------------------------------------------------------------------


 INCAR:
 POTCAR:   PAW_PBE O 08Apr2002                    
 POTCAR:    PAW_PBE S 17Jan2003                   
 POTCAR:   PAW_PBE C 08Apr2002                    
 POTCAR:   PAW_PBE O 08Apr2002                    
   VRHFIN =O: s2p4                                                              
   LEXCH  = PE                                                                  
   EATOM  =   432.3788 eV,   31.7789 Ry                                         
                                                                                
   TITEL  = PAW_PBE O 08Apr2002                                                 
   LULTRA =        F    use ultrasoft PP ?                                      
   IUNSCR =        0    unscreen: 0-lin 1-nonlin 2-no                           
   RPACOR =     .000    partial core radius                                     
   POMASS =   16.000; ZVAL   =    6.000    mass and valenz                      
   RCORE  =    1.520    outmost cutoff radius                                   
   RWIGS  =    1.550; RWIGS  =     .820    wigner-seitz radius (au A)           
   ENMAX  =  400.000; ENMIN  =  300.000 eV                                      
   ICORE  =        2    local potential                                         
   LCOR   =        T    correct aug charges                                     
   LPAW   =        T    paw PP                                                  
   EAUG   =  605.392                                                            
   DEXC   =     .000                                                            
   RMAX   =    2.264    core radius for proj-oper                               
   RAUG   =    1.300    factor for augmentation sphere                          
   RDEP   =    1.550    radius for radial grids                                 
   QCUT   =   -5.520; QGAM   =   11.041    optimization parameters              
                                                                                
   Description                                                                  
     l     E      TYP  RCUT    TYP  RCUT                                        
     0   .000     23  1.200                                                     
     0  -.700     23  1.200                                                     
     1   .000     23  1.520                                                     
     1   .600     23  1.520                                                     
     2   .000      7  1.500                                                     
  local pseudopotential read in
  atomic valenz-charges read in
  non local Contribution for L=           0  read in
    real space projection operators read in
  non local Contribution for L=           0  read in
    real space projection operators read in
  non local Contribution for L=           1  read in
    real space projection operators read in
  non local Contribution for L=           1  read in
    real space projection operators read in
    PAW grid and wavefunctions read in
 
   number of l-projection  operators is LMAX  =           4
   number of lm-projection operators is LMMAX =           8
 
 POTCAR:    PAW_PBE S 17Jan2003                   
   VRHFIN =S : s2p4                                                             
   LEXCH  = PE                                                                  
   EATOM  =   276.8230 eV,   20.3459 Ry                                         
                                                                                
   TITEL  = PAW_PBE S 17Jan2003                                                 
   LULTRA =        F    use ultrasoft PP ?                                      
   IUNSCR =        1    unscreen: 0-lin 1-nonlin 2-no                           
   RPACOR =    1.500    partial core radius                                     
   POMASS =   32.066; ZVAL   =    6.000    mass and valenz                      
   RCORE  =    1.900    outmost cutoff radius                                   
   RWIGS  =    2.200; RWIGS  =    1.164    wigner-seitz radius (au A)           
   ENMAX  =  280.000; ENMIN  =  194.016 eV                                      
   ICORE  =        2    local potential                                         
   LCOR   =        T    correct aug charges                                     
   LPAW   =        T    paw PP                                                  
   EAUG   =  335.092                                                            
   DEXC   =     .000                                                            
   RMAX   =    2.867    core radius for proj-oper                               
   RAUG   =    1.300    factor for augmentation sphere                          
   RDEP   =    1.954    radius for radial grids                                 
   QCUT   =   -4.360; QGAM   =    8.721    optimization parameters              
                                                                                
   Description                                                                  
     l     E      TYP  RCUT    TYP  RCUT                                        
     0   .000     23  1.900                                                     
     0   .000     23  1.900                                                     
     1   .000     23  1.900                                                     
     1   .000     23  1.900                                                     
     2   .000     23  1.900                                                     
  local pseudopotential read in
  partial core-charges read in
  atomic valenz-charges read in
  non local Contribution for L=           0  read in
    real space projection operators read in
  non local Contribution for L=           0  read in
    real space projection operators read in
  non local Contribution for L=           1  read in
    real space projection operators read in
  non local Contribution for L=           1  read in
    real space projection operators read in
    PAW grid and wavefunctions read in
 
   number of l-projection  operators is LMAX  =           4
   number of lm-projection operators is LMMAX =           8
 
 POTCAR:   PAW_PBE C 08Apr2002                    
   VRHFIN =C: s2p2                                                              
   LEXCH  = PE                                                                  
   EATOM  =   147.1560 eV,   10.8157 Ry                                         
                                                                                
   TITEL  = PAW_PBE C 08Apr2002                                                 
   LULTRA =        F    use ultrasoft PP ?                                      
   IUNSCR =        0    unscreen: 0-lin 1-nonlin 2-no                           
   RPACOR =     .000    partial core radius                                     
   POMASS =   12.011; ZVAL   =    4.000    mass and valenz                      
   RCORE  =    1.500    outmost cutoff radius                                   
   RWIGS  =    1.630; RWIGS  =     .863    wigner-seitz radius (au A)           
   ENMAX  =  400.000; ENMIN  =  300.000 eV                                      
   ICORE  =        2    local potential                                         
   LCOR   =        T    correct aug charges                                     
   LPAW   =        T    paw PP                                                  
   EAUG   =  644.873                                                            
   DEXC   =     .000                                                            
   RMAX   =    2.266    core radius for proj-oper                               
   RAUG   =    1.300    factor for augmentation sphere                          
   RDEP   =    1.501    radius for radial grids                                 
   RDEPT  =    1.300    core radius for aug-charge                              
   QCUT   =   -5.516; QGAM   =   11.032    optimization parameters              
                                                                                
   Description                                                                  
     l     E      TYP  RCUT    TYP  RCUT                                        
     0   .000     23  1.200                                                     
     0   .000     23  1.200                                                     
     1   .000     23  1.500                                                     
     1  2.500     23  1.500                                                     
     2   .000      7  1.500                                                     
  local pseudopotential read in
  atomic valenz-charges read in
  non local Contribution for L=           0  read in
    real space projection operators read in
  non local Contribution for L=           0  read in
    real space projection operators read in
  non local Contribution for L=           1  read in
    real space projection operators read in
  non local Contribution for L=           1  read in
    real space projection operators read in
    PAW grid and wavefunctions read in
 
   number of l-projection  operators is LMAX  =           4
   number of lm-projection operators is LMMAX =           8
 

 ----------------------------------------------------------------------------- 
|                                                                             |
|  ADVICE TO THIS USER RUNNING 'VASP/VAMP'   (HEAR YOUR MASTER'S VOICE ...):  |
|                                                                             |
|      You have a (more or less) 'small supercell' and for smaller cells      |
|      it is recommended  to use the reciprocal-space projection scheme!      |
|      The real space optimization is not  efficient for small cells and it   |
|      is also less accurate ...                                              |
|      Therefore set LREAL=.FALSE. in the  INCAR file                         |
|                                                                             |
 ----------------------------------------------------------------------------- 

 Optimization of the real space projectors (new method)

 maximal supplied QI-value         = 24.76
 optimisation between [QCUT,QGAM] = [ 10.15, 20.30] = [ 28.85,115.39] Ry 
 Optimized for a Real-space Cutoff    1.51 Angstroem

   l    n(q)    QCUT    max X(q) W(low)/X(q) W(high)/X(q)  e(spline) 
   0      9    10.150     4.192    0.32E-04    0.13E-04    0.13E-06
   0      9    10.150     8.473    0.18E-03    0.20E-03    0.43E-06
   1      9    10.150     2.474    0.32E-04    0.33E-04    0.64E-07
   1      9    10.150     3.912    0.13E-03    0.16E-03    0.33E-06
 Optimization of the real space projectors (new method)

 maximal supplied QI-value         = 19.84
 optimisation between [QCUT,QGAM] = [ 10.12, 20.44] = [ 28.68,116.96] Ry 
 Optimized for a Real-space Cutoff    1.42 Angstroem

   l    n(q)    QCUT    max X(q) W(low)/X(q) W(high)/X(q)  e(spline) 
   0      9    10.119     5.487    0.15E-04    0.47E-05    0.66E-08
   0      9    10.119    85.627    0.51E-04    0.92E-04    0.63E-07
   1      8    10.119     3.530    0.37E-05    0.76E-05    0.28E-07
   1      8    10.119    42.714    0.16E-03    0.16E-03    0.23E-06
 Optimization of the real space projectors (new method)

 maximal supplied QI-value         = 25.13
 optimisation between [QCUT,QGAM] = [ 10.05, 20.36] = [ 28.30,116.06] Ry 
 Optimized for a Real-space Cutoff    1.38 Angstroem

   l    n(q)    QCUT    max X(q) W(low)/X(q) W(high)/X(q)  e(spline) 
   0      8    10.053     5.582    0.33E-04    0.15E-04    0.75E-07
   0      8    10.053    69.432    0.23E-03    0.38E-03    0.25E-06
   1      8    10.053     2.780    0.76E-04    0.11E-03    0.15E-06
   1      8    10.053     4.549    0.19E-03    0.19E-03    0.27E-06
 PAW_PBE O 08Apr2002                    :
 energy of atom  1       EATOM= -432.3788
 kinetic energy error for atom=    0.1156 (will be added to EATOM!!)
  PAW_PBE S 17Jan2003                   :
 energy of atom  2       EATOM= -276.8230
 kinetic energy error for atom=    0.0046 (will be added to EATOM!!)
 PAW_PBE C 08Apr2002                    :
 energy of atom  3       EATOM= -147.1560
 kinetic energy error for atom=    0.0288 (will be added to EATOM!!)
 
 
 POSCAR: O2                                      
  positions in direct lattice
  No initial velocities read in
 exchange correlation table for  LEXCH =        8
   RHO(1)=    0.500       N(1)  =     2000
   RHO(2)=  100.500       N(2)  =     4000

 VTST: version 3.2, (02/03/18)

 CHAIN: initializing optimizer
 
 OPT: Using VASP QUASI-newton optimizer
 CHAIN: Read ICHAIN            0
 
 POSCAR: O2                                      
  positions in direct lattice
  No initial velocities read in
 


--------------------------------------------------------------------------------------------------------


 ion  position               nearest neighbor table
   1  0.815  0.514  0.681-   3 1.23
   2  0.765  0.530  0.511-   3 1.41
   3  0.795  0.523  0.601-   1 1.23   2 1.41
 
  LATTYP: Found a hexagonal cell.
 ALAT       =    13.6750001907
 C/A-ratio  =     1.0798537472
  
  Lattice vectors:
  
 A1 = (  13.6750001907,   0.0000000000,   0.0000000000)
 A2 = (  -6.8375000954,  11.8428975619,   0.0000000000)
 A3 = (   0.0000000000,   0.0000000000,  14.7670001984)


Analysis of symmetry for initial positions (statically):
=====================================================================
 Subroutine PRICEL returns:
 Original cell was already a primitive cell.
 

 Routine SETGRP: Setting up the symmetry group for a 
 hexagonal supercell.


 Subroutine GETGRP returns: Found  1 space group operations
 (whereof  1 operations were pure point group operations)
 out of a pool of 24 trial point group operations.


The static configuration has the point symmetry C_1 .


Analysis of symmetry for dynamics (positions and initial velocities):
=====================================================================
 Subroutine PRICEL returns:
 Original cell was already a primitive cell.
 

 Routine SETGRP: Setting up the symmetry group for a 
 hexagonal supercell.


 Subroutine GETGRP returns: Found  1 space group operations
 (whereof  1 operations were pure point group operations)
 out of a pool of 24 trial point group operations.


The dynamic configuration has the point symmetry C_1 .


Analysis of structural, dynamic, and magnetic symmetry:
=====================================================================
 Subroutine PRICEL returns:
 Original cell was already a primitive cell.
 

 Routine SETGRP: Setting up the symmetry group for a 
 hexagonal supercell.


 Subroutine GETGRP returns: Found  1 space group operations
 (whereof  1 operations were pure point group operations)
 out of a pool of 24 trial point group operations.


The magnetic configuration has the point symmetry C_1 .


 Subroutine INISYM returns: Found  1 space group operations
 (whereof  1 operations are pure point group operations),
 and found     1 'primitive' translations

 
 
 KPOINTS: Gamma points only                       
  k-points in reciprocal lattice
Space group operators:
 irot       det(A)        alpha          n_x          n_y          n_z        tau_x        tau_y        tau_z
    1     1.000000     0.000000     1.000000     0.000000     0.000000     0.000000     0.000000     0.000000


--------------------------------------------------------------------------------------------------------




 Dimension of arrays:
   k-points           NKPTS =      1   k-points in BZ     NKDIM =      1   number of bands    NBANDS=     16
   number of dos      NEDOS =    301   number of ions     NIONS =      3
   non local maximal  LDIM  =      4   non local SUM 2l+1 LMDIM =      8
   total plane-waves  NPLWV = 777600
   max r-space proj   IRMAX =   4725   max aug-charges    IRDMAX=  82140
   dimension x,y,z NGX =    90 NGY =   90 NGZ =   96
   dimension x,y,z NGXF=   180 NGYF=  180 NGZF=  192
   support grid    NGXF=   360 NGYF=  360 NGZF=  384
   ions per type =               1   1   1
   NGX,Y,Z   is equivalent  to a cutoff of  10.94, 10.94, 10.81 a.u.
   NGXF,Y,Z  is equivalent  to a cutoff of  21.88, 21.88, 21.62 a.u.

 SYSTEM =  SiO2                                    
 POSCAR =  O2                                      

 Startparameter for this run:
   NWRITE =      2    write-flag & timer
   PREC   = acc       normal or accurate (medium, high low for compatibility)
   ISTART =      0    job   : 0-new  1-cont  2-samecut
   ICHARG =      2    charge: 1-file 2-atom 10-const
   ISPIN  =      2    spin polarized calculation?
   LNONCOLLINEAR =      F non collinear calculations
   LSORBIT =      F    spin-orbit coupling
   INIWAV =      1    electr: 0-lowe 1-rand  2-diag
   LASPH  =      F    aspherical Exc in radial PAW
   METAGGA=      F    non-selfconsistent MetaGGA calc.

 Electronic Relaxation 1
   ENCUT  =  400.0 eV  29.40 Ry    5.42 a.u.  22.30 22.30 24.08*2*pi/ulx,y,z
   ENINI  =  400.0     initial cutoff
   ENAUG  =  644.9 eV  augmentation charge cutoff
   NELM   =    100;   NELMIN=  2; NELMDL= -5     # of ELM steps 
   EDIFF  = 0.1E-04   stopping-criterion for ELM
   LREAL  =      T    real-space projection
   NLSPLINE    = F    spline interpolate recip. space projectors
   LCOMPAT=      F    compatible to vasp.4.4
   GGA_COMPAT  = T    GGA compatible to vasp.4.4-vasp.4.6
   LMAXPAW     = -100 max onsite density
   LMAXMIX     =    2 max onsite mixed and CHGCAR
   VOSKOWN=      0    Vosko Wilk Nusair interpolation
   ROPT   =   -0.00025  -0.00025  -0.00025
 Ionic relaxation
   EDIFFG = -.1E-01   stopping-criterion for IOM
   NSW    =    500    number of steps for IOM
   NBLOCK =      1;   KBLOCK =    500    inner block; outer block 
   IBRION =      1    ionic relax: 0-MD 1-quasi-New 2-CG
   NFREE  =      0    steps in history (QN), initial steepest desc. (CG)
   ISIF   =      2    stress and relaxation
   IWAVPR =     11    prediction:  0-non 1-charg 2-wave 3-comb
   ISYM   =      2    0-nonsym 1-usesym 2-fastsym
   LCORR  =      T    Harris-Foulkes like correction to forces

   POTIM  = 0.5000    time-step for ionic-motion
   TEIN   =    0.0    initial temperature
   TEBEG  =    0.0;   TEEND  =   0.0 temperature during run
   SMASS  =  -3.00    Nose mass-parameter (am)
   estimated Nose-frequenzy (Omega)   =  0.10E-29 period in steps =****** mass=  -0.427E-26a.u.
   SCALEE = 1.0000    scale energy and forces
   NPACO  =    256;   APACO  = 16.0  distance and # of slots for P.C.
   PSTRESS=    0.0 pullay stress

  Mass of Ions in am
   POMASS =  16.00 32.07 12.01
  Ionic Valenz
   ZVAL   =   6.00  6.00  4.00
  Atomic Wigner-Seitz radii
   RWIGS  =  -1.00 -1.00 -1.00
  virtual crystal weights 
   VCA    =   1.00  1.00  1.00
   NELECT =      16.0000    total number of electrons
   NUPDOWN=      -1.0000    fix difference up-down

 DOS related values:
   EMIN   =  10.00;   EMAX   =-10.00  energy-range for DOS
   EFERMI =   0.00
   ISMEAR =     0;   SIGMA  =   0.05  broadening in eV -4-tet -1-fermi 0-gaus

 Electronic relaxation 2 (details)
   IALGO  =     38    algorithm
   LDIAG  =      T    sub-space diagonalisation (order eigenvalues)
   LSUBROT=      F    optimize rotation matrix (better conditioning)
   TURBO    =      0    0=normal 1=particle mesh
   IRESTART =      0    0=no restart 2=restart with 2 vectors
   NREBOOT  =      0    no. of reboots
   NMIN     =      0    reboot dimension
   EREF     =   0.00    reference energy to select bands
   IMIX   =      4    mixing-type and parameters
     AMIX     =   0.40;   BMIX     =  1.00
     AMIX_MAG =   1.60;   BMIX_MAG =  1.00
     AMIN     =   0.10
     WC   =   100.;   INIMIX=   1;  MIXPRE=   1;  MAXMIX= -45

 Intra band minimization:
   WEIMIN = 0.0010     energy-eigenvalue tresh-hold
   EBREAK =  0.16E-06  absolut break condition
   DEPER  =   0.30     relativ break condition  

   TIME   =   0.40     timestep for ELM

  volume/ion in A,a.u.               =     797.18      5379.64
  Fermi-wavevector in a.u.,A,eV,Ry     =   0.308477  0.582936  1.294701  0.095158
  Thomas-Fermi vector in A             =   1.184309
 
 Write flags
   LWAVE        =      F    write WAVECAR
   LDOWNSAMPLE  =      F    k-point downsampling of WAVECAR
   LCHARG       =      F    write CHGCAR
   LVTOT        =      F    write LOCPOT, total local potential
   LVHAR        =      F    write LOCPOT, Hartree potential only
   LELF         =      F    write electronic localiz. function (ELF)
   LORBIT       =     11    0 simple, 1 ext, 2 COOP (PROOUT), +10 PAW based schemes


 Dipole corrections
   LMONO  =      F    monopole corrections only (constant potential shift)
   LDIPOL =      F    correct potential (dipole corrections)
   IDIPOL =      0    1-x, 2-y, 3-z, 4-all directions 
   EPSILON=  1.0000000 bulk dielectric constant

 Exchange correlation treatment:
   GGA     =    --    GGA type
   LEXCH   =     8    internal setting for exchange type
   VOSKOWN=      0    Vosko Wilk Nusair interpolation
   LHFCALC =     F    Hartree Fock is set to
   LHFONE  =     F    Hartree Fock one center treatment
   AEXX    =    0.0000 exact exchange contribution

 Linear response parameters
   LEPSILON=     F    determine dielectric tensor
   LRPA    =     F    only Hartree local field effects (RPA)
   LNABLA  =     F    use nabla operator in PAW spheres
   LVEL    =     F    velocity operator in full k-point grid
   LINTERFAST=   F  fast interpolation
   KINTER  =     0    interpolate to denser k-point grid
   CSHIFT  =0.1000    complex shift for real part using Kramers Kronig
   OMEGAMAX=  -1.0    maximum frequency
   DEG_THRESHOLD= 0.2000000E-02 threshold for treating states as degnerate
   RTIME   =   -0.100 relaxation time in fs
  (WPLASMAI=    0.000 imaginary part of plasma frequency in eV, 0.658/RTIME)
   DFIELD  = 0.0000000 0.0000000 0.0000000 field for delta impulse in time
 
 Orbital magnetization related:
   ORBITALMAG=     F  switch on orbital magnetization
   LCHIMAG   =     F  perturbation theory with respect to B field
   DQ        =  0.001000  dq finite difference perturbation B field
   LLRAUG    =     F  two centre corrections for induced B field



--------------------------------------------------------------------------------------------------------


 quasi-Newton-method for relaxation of ions
 charge density and potential will be updated during run
 spin polarized calculation
 Variant of blocked Davidson
 Davidson routine will perform the subspace rotation
 perform sub-space diagonalisation
    after iterative eigenvector-optimisation
 modified Broyden-mixing scheme, WC =      100.0
 initial mixing is a Kerker type mixing with AMIX =  0.4000 and BMIX =      1.0000
 Hartree-type preconditioning will be used
 using additional bands            8
 real space projection scheme for non local part
 use partial core corrections
 calculate Harris-corrections to forces 
   (improved forces if not selfconsistent)
 use gradient corrections 
 use of overlap-Matrix (Vanderbilt PP)
 Gauss-broadening in eV      SIGMA  =   0.05


--------------------------------------------------------------------------------------------------------


  energy-cutoff  :      400.00
  volume of cell :     2391.54
      direct lattice vectors                 reciprocal lattice vectors
    13.675000191  0.000000000  0.000000000     0.073126142  0.042219398  0.000000000
    -6.837500095 11.842897562  0.000000000     0.000000000  0.084438795  0.000000000
     0.000000000  0.000000000 14.767000198     0.000000000  0.000000000  0.067718561

  length of vectors
    13.675000191 13.675000191 14.767000198     0.084438795  0.084438795  0.067718561


 
 k-points in units of 2pi/SCALE and weight: Gamma points only                       
   0.00000000  0.00000000  0.00000000       1.000
 
 k-points in reciprocal lattice and weights: Gamma points only                       
   0.00000000  0.00000000  0.00000000       1.000
 
 position of ions in fractional coordinates (direct lattice) 
   0.81541687  0.51442778  0.68143398
   0.76479000  0.52981001  0.51143402
   0.79479003  0.52298099  0.60138637
 
 position of ions in cartesian coordinates  (Angst):
   7.63342589  6.09231551 10.06273566
   6.83592738  6.27448569  7.55234626
   7.29287126  6.19361027  8.88067262
 


--------------------------------------------------------------------------------------------------------


 k-point  1 :   0.0000 0.0000 0.0000  plane waves:   43405

 maximum and minimum number of plane-waves per node :     10852    10850

 maximum number of plane-waves:     43405
 maximum index in each direction: 
   IXMAX=   22   IYMAX=   22   IZMAX=   24
   IXMIN=  -22   IYMIN=  -22   IZMIN=  -24


 real space projection operators:
  total allocation   :        737.38 KBytes
  max/ min on nodes  :        185.56        182.19


 parallel 3D FFT for wavefunctions:
    minimum data exchange during FFTs selected (reduces bandwidth)
 parallel 3D FFT for charge:
    minimum data exchange during FFTs selected (reduces bandwidth)


 total amount of memory used by VASP MPI-rank0   148626. kBytes
=======================================================================

   base      :      30000. kBytes
   nonlr-proj:        466. kBytes
   fftplans  :      63994. kBytes
   grid      :      52770. kBytes
   one-center:          6. kBytes
   wavefun   :       1390. kBytes
 
     INWAV:  cpu time    0.0000: real time    0.0002
 Broyden mixing: mesh for mixing (old mesh)
   NGX = 45   NGY = 45   NGZ = 49
  (NGX  =180   NGY  =180   NGZ  =192)
  gives a total of  99225 points

 initial charge density was supplied:
 charge density of overlapping atoms calculated
 number of electron      16.0000000 magnetization       3.0000000
 keeping initial charge density in first step


--------------------------------------------------------------------------------------------------------


 Maximum index for non-local projection operator         1143
 Maximum index for augmentation-charges         4910 (set IRDMAX)


--------------------------------------------------------------------------------------------------------


 First call to EWALD:  gamma=   0.133
 Maximum number of real-space cells 3x 3x 3
 Maximum number of reciprocal cells 3x 3x 3

    FEWALD:  cpu time    0.0013: real time    0.0013


--------------------------------------- Iteration      1(   1)  ---------------------------------------


    POTLOK:  cpu time    0.5418: real time    0.5604
    SETDIJ:  cpu time    0.2562: real time    0.2568
     EDDAV:  cpu time    0.4453: real time    0.4465
       DOS:  cpu time    0.0001: real time    0.0001
    --------------------------------------------
      LOOP:  cpu time    1.2435: real time    1.2638

 eigenvalue-minimisations  :    96
 total energy-change (2. order) : 0.9744435E+02  (-0.3518717E+03)
 number of electron      16.0000000 magnetization       3.0000000
 augmentation part       16.0000000 magnetization       3.0000000

 Free energy of the ion-electron system (eV)
  ---------------------------------------------------
  alpha Z        PSCENC =         0.45950737
  Ewald energy   TEWEN  =       333.53210346
  -Hartree energ DENC   =     -1006.99612193
  -exchange      EXHF   =         0.00000000
  -V(xc)+E(xc)   XCENC  =        52.97256992
  PAW double counting   =       382.77538028     -382.56144415
  entropy T*S    EENTRO =        -0.00000000
  eigenvalues    EBANDS =      -138.94646590
  atomic energy  EATOM  =       856.20882267
  Solvation  Ediel_sol  =         0.00000000
  ---------------------------------------------------
  free energy    TOTEN  =        97.44435174 eV

  energy without entropy =       97.44435174  energy(sigma->0) =       97.44435174


--------------------------------------------------------------------------------------------------------




--------------------------------------- Iteration      1(   2)  ---------------------------------------


     EDDAV:  cpu time    0.5028: real time    0.5098
       DOS:  cpu time    0.0001: real time    0.0001
    --------------------------------------------
      LOOP:  cpu time    0.5029: real time    0.5099

 eigenvalue-minimisations  :   112
 total energy-change (2. order) :-0.8946099E+02  (-0.8286008E+02)
 number of electron      16.0000000 magnetization       3.0000000
 augmentation part       16.0000000 magnetization       3.0000000

 Free energy of the ion-electron system (eV)
  ---------------------------------------------------
  alpha Z        PSCENC =         0.45950737
  Ewald energy   TEWEN  =       333.53210346
  -Hartree energ DENC   =     -1006.99612193
  -exchange      EXHF   =         0.00000000
  -V(xc)+E(xc)   XCENC  =        52.97256992
  PAW double counting   =       382.77538028     -382.56144415
  entropy T*S    EENTRO =        -0.00000000
  eigenvalues    EBANDS =      -228.40745632
  atomic energy  EATOM  =       856.20882267
  Solvation  Ediel_sol  =         0.00000000
  ---------------------------------------------------
  free energy    TOTEN  =         7.98336131 eV

  energy without entropy =        7.98336131  energy(sigma->0) =        7.98336131


--------------------------------------------------------------------------------------------------------




--------------------------------------- Iteration      1(   3)  ---------------------------------------


     EDDAV:  cpu time    0.4497: real time    0.4540
       DOS:  cpu time    0.0001: real time    0.0001
    --------------------------------------------
      LOOP:  cpu time    0.4498: real time    0.4541

 eigenvalue-minimisations  :    96
 total energy-change (2. order) :-0.2607809E+02  (-0.2512496E+02)
 number of electron      16.0000000 magnetization       3.0000000
 augmentation part       16.0000000 magnetization       3.0000000

 Free energy of the ion-electron system (eV)
  ---------------------------------------------------
  alpha Z        PSCENC =         0.45950737
  Ewald energy   TEWEN  =       333.53210346
  -Hartree energ DENC   =     -1006.99612193
  -exchange      EXHF   =         0.00000000
  -V(xc)+E(xc)   XCENC  =        52.97256992
  PAW double counting   =       382.77538028     -382.56144415
  entropy T*S    EENTRO =        -0.00000000
  eigenvalues    EBANDS =      -254.48554656
  atomic energy  EATOM  =       856.20882267
  Solvation  Ediel_sol  =         0.00000000
  ---------------------------------------------------
  free energy    TOTEN  =       -18.09472892 eV

  energy without entropy =      -18.09472892  energy(sigma->0) =      -18.09472892


--------------------------------------------------------------------------------------------------------




--------------------------------------- Iteration      1(   4)  ---------------------------------------


     EDDAV:  cpu time    0.3857: real time    0.3869
       DOS:  cpu time    0.0001: real time    0.0001
    --------------------------------------------
      LOOP:  cpu time    0.3858: real time    0.3870

 eigenvalue-minimisations  :    80
 total energy-change (2. order) :-0.2047331E+01  (-0.1994356E+01)
 number of electron      16.0000000 magnetization       3.0000000
 augmentation part       16.0000000 magnetization       3.0000000

 Free energy of the ion-electron system (eV)
  ---------------------------------------------------
  alpha Z        PSCENC =         0.45950737
  Ewald energy   TEWEN  =       333.53210346
  -Hartree energ DENC   =     -1006.99612193
  -exchange      EXHF   =         0.00000000
  -V(xc)+E(xc)   XCENC  =        52.97256992
  PAW double counting   =       382.77538028     -382.56144415
  entropy T*S    EENTRO =        -0.00000000
  eigenvalues    EBANDS =      -256.53287756
  atomic energy  EATOM  =       856.20882267
  Solvation  Ediel_sol  =         0.00000000
  ---------------------------------------------------
  free energy    TOTEN  =       -20.14205992 eV

  energy without entropy =      -20.14205992  energy(sigma->0) =      -20.14205992


--------------------------------------------------------------------------------------------------------




--------------------------------------- Iteration      1(   5)  ---------------------------------------


     EDDAV:  cpu time    0.4024: real time    0.4178
       DOS:  cpu time    0.0001: real time    0.0001
    CHARGE:  cpu time    0.2953: real time    0.3001
    MIXING:  cpu time    0.0100: real time    0.0101
    --------------------------------------------
      LOOP:  cpu time    0.7079: real time    0.7281

 eigenvalue-minimisations  :    80
 total energy-change (2. order) :-0.3394962E-01  (-0.3390644E-01)
 number of electron      16.0000000 magnetization       2.2642137
 augmentation part       -0.0006376 magnetization       2.2883017

 Broyden mixing:
  rms(total) = 0.11759E+01    rms(broyden)= 0.11749E+01
  rms(prec ) = 0.12995E+01
  weight for this iteration     100.00

 Free energy of the ion-electron system (eV)
  ---------------------------------------------------
  alpha Z        PSCENC =         0.45950737
  Ewald energy   TEWEN  =       333.53210346
  -Hartree energ DENC   =     -1006.99612193
  -exchange      EXHF   =         0.00000000
  -V(xc)+E(xc)   XCENC  =        52.97256992
  PAW double counting   =       382.77538028     -382.56144415
  entropy T*S    EENTRO =        -0.00000000
  eigenvalues    EBANDS =      -256.56682718
  atomic energy  EATOM  =       856.20882267
  Solvation  Ediel_sol  =         0.00000000
  ---------------------------------------------------
  free energy    TOTEN  =       -20.17600954 eV

  energy without entropy =      -20.17600954  energy(sigma->0) =      -20.17600954


--------------------------------------------------------------------------------------------------------




--------------------------------------- Iteration      1(   6)  ---------------------------------------


    POTLOK:  cpu time    0.5290: real time    0.5305
    SETDIJ:  cpu time    0.2639: real time    0.2653
     EDDAV:  cpu time    0.3510: real time    0.3518
       DOS:  cpu time    0.0001: real time    0.0001
    CHARGE:  cpu time    0.2894: real time    0.2901
    MIXING:  cpu time    0.0120: real time    0.0121
    --------------------------------------------
      LOOP:  cpu time    1.4454: real time    1.4499

 eigenvalue-minimisations  :    72
 total energy-change (2. order) : 0.9121804E+01  (-0.1029736E+01)
 number of electron      16.0000000 magnetization       1.7519827
 augmentation part       -0.1874170 magnetization       1.7268150

 Broyden mixing:
  rms(total) = 0.42309E+00    rms(broyden)= 0.42249E+00
  rms(prec ) = 0.46742E+00
  weight for this iteration     100.00

 eigenvalues of (default mixing * dielectric matrix)
  average eigenvalue GAMMA=   0.9250
  0.9250

 Free energy of the ion-electron system (eV)
  ---------------------------------------------------
  alpha Z        PSCENC =         0.45950737
  Ewald energy   TEWEN  =       333.53210346
  -Hartree energ DENC   =     -1034.30791488
  -exchange      EXHF   =         0.00000000
  -V(xc)+E(xc)   XCENC  =        60.52261758
  PAW double counting   =       447.82501601     -448.01155080
  entropy T*S    EENTRO =        -0.00000000
  eigenvalues    EBANDS =      -227.28280733
  atomic energy  EATOM  =       856.20882267
  Solvation  Ediel_sol  =         0.00000000
  ---------------------------------------------------
  free energy    TOTEN  =       -11.05420590 eV

  energy without entropy =      -11.05420590  energy(sigma->0) =      -11.05420590


--------------------------------------------------------------------------------------------------------




--------------------------------------- Iteration      1(   7)  ---------------------------------------


    POTLOK:  cpu time    0.5257: real time    0.5271
    SETDIJ:  cpu time    0.2545: real time    0.2551
     EDDAV:  cpu time    0.3820: real time    0.3829
       DOS:  cpu time    0.0001: real time    0.0001
    CHARGE:  cpu time    0.2894: real time    0.2901
    MIXING:  cpu time    0.0125: real time    0.0125
    --------------------------------------------
      LOOP:  cpu time    1.4642: real time    1.4679

 eigenvalue-minimisations  :    80
 total energy-change (2. order) :-0.3881761E+01  (-0.2568433E+00)
 number of electron      16.0000000 magnetization       1.0813778
 augmentation part       -0.1634648 magnetization       1.0648671

 Broyden mixing:
  rms(total) = 0.21768E+00    rms(broyden)= 0.21767E+00
  rms(prec ) = 0.23816E+00
  weight for this iteration     100.00

 eigenvalues of (default mixing * dielectric matrix)
  average eigenvalue GAMMA=   1.0934
  0.9897  1.1972

 Free energy of the ion-electron system (eV)
  ---------------------------------------------------
  alpha Z        PSCENC =         0.45950737
  Ewald energy   TEWEN  =       333.53210346
  -Hartree energ DENC   =     -1037.80696491
  -exchange      EXHF   =         0.00000000
  -V(xc)+E(xc)   XCENC  =        57.66761556
  PAW double counting   =       469.89765803     -470.17041918
  entropy T*S    EENTRO =        -0.00000000
  eigenvalues    EBANDS =      -224.72428995
  atomic energy  EATOM  =       856.20882267
  Solvation  Ediel_sol  =         0.00000000
  ---------------------------------------------------
  free energy    TOTEN  =       -14.93596694 eV

  energy without entropy =      -14.93596694  energy(sigma->0) =      -14.93596694


--------------------------------------------------------------------------------------------------------




--------------------------------------- Iteration      1(   8)  ---------------------------------------


    POTLOK:  cpu time    0.5271: real time    0.5286
    SETDIJ:  cpu time    0.2552: real time    0.2558
     EDDAV:  cpu time    0.4445: real time    0.4455
       DOS:  cpu time    0.0001: real time    0.0001
    CHARGE:  cpu time    0.2893: real time    0.2899
    MIXING:  cpu time    0.0122: real time    0.0123
    --------------------------------------------
      LOOP:  cpu time    1.5284: real time    1.5322

 eigenvalue-minimisations  :    96
 total energy-change (2. order) :-0.2342013E+01  (-0.1465740E+00)
 number of electron      16.0000000 magnetization       0.7679334
 augmentation part       -0.1455559 magnetization       0.7640289

 Broyden mixing:
  rms(total) = 0.85265E-01    rms(broyden)= 0.85218E-01
  rms(prec ) = 0.92949E-01
  weight for this iteration     100.00

 eigenvalues of (default mixing * dielectric matrix)
  average eigenvalue GAMMA=   1.1693
  1.7332  1.0505  0.7242

 Free energy of the ion-electron system (eV)
  ---------------------------------------------------
  alpha Z        PSCENC =         0.45950737
  Ewald energy   TEWEN  =       333.53210346
  -Hartree energ DENC   =     -1043.46275324
  -exchange      EXHF   =         0.00000000
  -V(xc)+E(xc)   XCENC  =        56.02752879
  PAW double counting   =       495.77057750     -496.13699097
  entropy T*S    EENTRO =        -0.00000000
  eigenvalues    EBANDS =      -219.67677576
  atomic energy  EATOM  =       856.20882267
  Solvation  Ediel_sol  =         0.00000000
  ---------------------------------------------------
  free energy    TOTEN  =       -17.27798017 eV

  energy without entropy =      -17.27798017  energy(sigma->0) =      -17.27798017


--------------------------------------------------------------------------------------------------------




--------------------------------------- Iteration      1(   9)  ---------------------------------------


    POTLOK:  cpu time    0.5258: real time    0.5272
    SETDIJ:  cpu time    0.2547: real time    0.2552
     EDDAV:  cpu time    0.3510: real time    0.3519
       DOS:  cpu time    0.0001: real time    0.0001
    CHARGE:  cpu time    0.2879: real time    0.2886
    MIXING:  cpu time    0.0121: real time    0.0122
    --------------------------------------------
      LOOP:  cpu time    1.4316: real time    1.4352

 eigenvalue-minimisations  :    72
 total energy-change (2. order) :-0.4841931E+00  (-0.1042010E-01)
 number of electron      16.0000000 magnetization       0.5044506
 augmentation part       -0.1513355 magnetization       0.5010546

 Broyden mixing:
  rms(total) = 0.50354E-01    rms(broyden)= 0.50337E-01
  rms(prec ) = 0.55943E-01
  weight for this iteration     100.00

 eigenvalues of (default mixing * dielectric matrix)
  average eigenvalue GAMMA=   1.1820
  2.0108  1.1478  0.8336  0.7356

 Free energy of the ion-electron system (eV)
  ---------------------------------------------------
  alpha Z        PSCENC =         0.45950737
  Ewald energy   TEWEN  =       333.53210346
  -Hartree energ DENC   =     -1044.26295789
  -exchange      EXHF   =         0.00000000
  -V(xc)+E(xc)   XCENC  =        55.67916708
  PAW double counting   =       500.93772061     -501.29975560
  entropy T*S    EENTRO =        -0.00000000
  eigenvalues    EBANDS =      -219.01678099
  atomic energy  EATOM  =       856.20882267
  Solvation  Ediel_sol  =         0.00000000
  ---------------------------------------------------
  free energy    TOTEN  =       -17.76217329 eV

  energy without entropy =      -17.76217329  energy(sigma->0) =      -17.76217329


--------------------------------------------------------------------------------------------------------




--------------------------------------- Iteration      1(  10)  ---------------------------------------


    POTLOK:  cpu time    0.5266: real time    0.5280
    SETDIJ:  cpu time    0.2543: real time    0.2549
     EDDAV:  cpu time    0.3811: real time    0.3820
       DOS:  cpu time    0.0001: real time    0.0001
    CHARGE:  cpu time    0.2923: real time    0.2930
    MIXING:  cpu time    0.0127: real time    0.0127
    --------------------------------------------
      LOOP:  cpu time    1.4672: real time    1.4709

 eigenvalue-minimisations  :    80
 total energy-change (2. order) :-0.5953195E+00  (-0.5087967E-02)
 number of electron      16.0000000 magnetization       0.2446713
 augmentation part       -0.1529958 magnetization       0.2432671

 Broyden mixing:
  rms(total) = 0.25563E-01    rms(broyden)= 0.25551E-01
  rms(prec ) = 0.29806E-01
  weight for this iteration     100.00

 eigenvalues of (default mixing * dielectric matrix)
  average eigenvalue GAMMA=   1.2936
  2.4384  1.4814  0.9340  0.9340  0.6803

 Free energy of the ion-electron system (eV)
  ---------------------------------------------------
  alpha Z        PSCENC =         0.45950737
  Ewald energy   TEWEN  =       333.53210346
  -Hartree energ DENC   =     -1043.87388437
  -exchange      EXHF   =         0.00000000
  -V(xc)+E(xc)   XCENC  =        55.10657716
  PAW double counting   =       502.21898854     -502.56209465
  entropy T*S    EENTRO =        -0.00000000
  eigenvalues    EBANDS =      -219.44751293
  atomic energy  EATOM  =       856.20882267
  Solvation  Ediel_sol  =         0.00000000
  ---------------------------------------------------
  free energy    TOTEN  =       -18.35749275 eV

  energy without entropy =      -18.35749275  energy(sigma->0) =      -18.35749275


--------------------------------------------------------------------------------------------------------




--------------------------------------- Iteration      1(  11)  ---------------------------------------


    POTLOK:  cpu time    0.5311: real time    0.5325
    SETDIJ:  cpu time    0.2569: real time    0.2575
     EDDAV:  cpu time    0.3301: real time    0.3309
       DOS:  cpu time    0.0001: real time    0.0001
    CHARGE:  cpu time    0.2938: real time    0.2945
    MIXING:  cpu time    0.0133: real time    0.0133
    --------------------------------------------
      LOOP:  cpu time    1.4253: real time    1.4289

 eigenvalue-minimisations  :    64
 total energy-change (2. order) :-0.4622321E+00  (-0.4218573E-02)
 number of electron      16.0000000 magnetization       0.1649348
 augmentation part       -0.1531072 magnetization       0.1644795

 Broyden mixing:
  rms(total) = 0.11229E-01    rms(broyden)= 0.11218E-01
  rms(prec ) = 0.14930E-01
  weight for this iteration     100.00

 eigenvalues of (default mixing * dielectric matrix)
  average eigenvalue GAMMA=   1.2513
  2.5648  1.6295  0.9673  0.8457  0.8457  0.6550

 Free energy of the ion-electron system (eV)
  ---------------------------------------------------
  alpha Z        PSCENC =         0.45950737
  Ewald energy   TEWEN  =       333.53210346
  -Hartree energ DENC   =     -1043.48197793
  -exchange      EXHF   =         0.00000000
  -V(xc)+E(xc)   XCENC  =        54.65149388
  PAW double counting   =       502.71746074     -503.04529537
  entropy T*S    EENTRO =        -0.00000000
  eigenvalues    EBANDS =      -219.86183964
  atomic energy  EATOM  =       856.20882267
  Solvation  Ediel_sol  =         0.00000000
  ---------------------------------------------------
  free energy    TOTEN  =       -18.81972482 eV

  energy without entropy =      -18.81972482  energy(sigma->0) =      -18.81972482


--------------------------------------------------------------------------------------------------------




--------------------------------------- Iteration      1(  12)  ---------------------------------------


    POTLOK:  cpu time    0.5274: real time    0.5418
    SETDIJ:  cpu time    0.2560: real time    0.2566
     EDDAV:  cpu time    0.4125: real time    0.4135
       DOS:  cpu time    0.0001: real time    0.0001
    CHARGE:  cpu time    0.2884: real time    0.2891
    MIXING:  cpu time    0.0121: real time    0.0121
    --------------------------------------------
      LOOP:  cpu time    1.4966: real time    1.5133

 eigenvalue-minimisations  :    88
 total energy-change (2. order) :-0.6421415E-01  (-0.3738032E-03)
 number of electron      16.0000000 magnetization       0.0325437
 augmentation part       -0.1539927 magnetization       0.0323390

 Broyden mixing:
  rms(total) = 0.73993E-02    rms(broyden)= 0.73952E-02
  rms(prec ) = 0.10743E-01
  weight for this iteration     100.00

 eigenvalues of (default mixing * dielectric matrix)
  average eigenvalue GAMMA=   1.3342
  2.8082  1.9968  1.1452  1.1452  0.8025  0.8025  0.6389

 Free energy of the ion-electron system (eV)
  ---------------------------------------------------
  alpha Z        PSCENC =         0.45950737
  Ewald energy   TEWEN  =       333.53210346
  -Hartree energ DENC   =     -1043.46754553
  -exchange      EXHF   =         0.00000000
  -V(xc)+E(xc)   XCENC  =        54.58626924
  PAW double counting   =       502.55014123     -502.87657362
  entropy T*S    EENTRO =        -0.00000000
  eigenvalues    EBANDS =      -219.87666381
  atomic energy  EATOM  =       856.20882267
  Solvation  Ediel_sol  =         0.00000000
  ---------------------------------------------------
  free energy    TOTEN  =       -18.88393897 eV

  energy without entropy =      -18.88393897  energy(sigma->0) =      -18.88393897


--------------------------------------------------------------------------------------------------------




--------------------------------------- Iteration      1(  13)  ---------------------------------------


    POTLOK:  cpu time    0.5233: real time    0.5248
    SETDIJ:  cpu time    0.2531: real time    0.2542
     EDDAV:  cpu time    0.3808: real time    0.3817
       DOS:  cpu time    0.0001: real time    0.0001
    CHARGE:  cpu time    0.2894: real time    0.2901
    MIXING:  cpu time    0.0126: real time    0.0126
    --------------------------------------------
      LOOP:  cpu time    1.4594: real time    1.4635

 eigenvalue-minimisations  :    80
 total energy-change (2. order) :-0.1014139E+00  (-0.5287671E-03)
 number of electron      16.0000000 magnetization      -0.0059277
 augmentation part       -0.1544631 magnetization      -0.0060086

 Broyden mixing:
  rms(total) = 0.39541E-02    rms(broyden)= 0.39512E-02
  rms(prec ) = 0.62865E-02
  weight for this iteration     100.00

 eigenvalues of (default mixing * dielectric matrix)
  average eigenvalue GAMMA=   1.4003
  3.4461  2.3295  1.4899  0.9875  0.8253  0.8253  0.6875  0.6114

 Free energy of the ion-electron system (eV)
  ---------------------------------------------------
  alpha Z        PSCENC =         0.45950737
  Ewald energy   TEWEN  =       333.53210346
  -Hartree energ DENC   =     -1043.29931326
  -exchange      EXHF   =         0.00000000
  -V(xc)+E(xc)   XCENC  =        54.47074190
  PAW double counting   =       501.89874732     -502.22081826
  entropy T*S    EENTRO =        -0.00000000
  eigenvalues    EBANDS =      -220.03514411
  atomic energy  EATOM  =       856.20882267
  Solvation  Ediel_sol  =         0.00000000
  ---------------------------------------------------
  free energy    TOTEN  =       -18.98535290 eV

  energy without entropy =      -18.98535290  energy(sigma->0) =      -18.98535290


--------------------------------------------------------------------------------------------------------




--------------------------------------- Iteration      1(  14)  ---------------------------------------


    POTLOK:  cpu time    0.5235: real time    0.5249
    SETDIJ:  cpu time    0.2547: real time    0.2553
     EDDAV:  cpu time    0.4106: real time    0.4116
       DOS:  cpu time    0.0001: real time    0.0001
    CHARGE:  cpu time    0.2889: real time    0.2904
    MIXING:  cpu time    0.0130: real time    0.0131
    --------------------------------------------
      LOOP:  cpu time    1.4907: real time    1.4953

 eigenvalue-minimisations  :    88
 total energy-change (2. order) :-0.1001754E-01  (-0.7250192E-04)
 number of electron      16.0000000 magnetization      -0.0170708
 augmentation part       -0.1543919 magnetization      -0.0170401

 Broyden mixing:
  rms(total) = 0.18856E-02    rms(broyden)= 0.18846E-02
  rms(prec ) = 0.41550E-02
  weight for this iteration     100.00

 eigenvalues of (default mixing * dielectric matrix)
  average eigenvalue GAMMA=   1.4173
  3.6453  2.4086  1.6502  1.0425  0.8967  0.8967  0.9128  0.6854  0.6174

 Free energy of the ion-electron system (eV)
  ---------------------------------------------------
  alpha Z        PSCENC =         0.45950737
  Ewald energy   TEWEN  =       333.53210346
  -Hartree energ DENC   =     -1043.32615536
  -exchange      EXHF   =         0.00000000
  -V(xc)+E(xc)   XCENC  =        54.45888070
  PAW double counting   =       501.85011625     -502.17297211
  entropy T*S    EENTRO =        -0.00000000
  eigenvalues    EBANDS =      -220.00567342
  atomic energy  EATOM  =       856.20882267
  Solvation  Ediel_sol  =         0.00000000
  ---------------------------------------------------
  free energy    TOTEN  =       -18.99537043 eV

  energy without entropy =      -18.99537043  energy(sigma->0) =      -18.99537043


--------------------------------------------------------------------------------------------------------




--------------------------------------- Iteration      1(  15)  ---------------------------------------


    POTLOK:  cpu time    0.5230: real time    0.5291
    SETDIJ:  cpu time    0.2535: real time    0.2541
     EDDAV:  cpu time    0.3505: real time    0.3514
       DOS:  cpu time    0.0001: real time    0.0001
    CHARGE:  cpu time    0.2883: real time    0.2890
    MIXING:  cpu time    0.0136: real time    0.0137
    --------------------------------------------
      LOOP:  cpu time    1.4291: real time    1.4373

 eigenvalue-minimisations  :    72
 total energy-change (2. order) :-0.3663325E-02  (-0.2650724E-04)
 number of electron      16.0000000 magnetization      -0.0199983
 augmentation part       -0.1542728 magnetization      -0.0199355

 Broyden mixing:
  rms(total) = 0.12213E-02    rms(broyden)= 0.12211E-02
  rms(prec ) = 0.29070E-02
  weight for this iteration     100.00

 eigenvalues of (default mixing * dielectric matrix)
  average eigenvalue GAMMA=   1.4467
  3.9104  2.4980  1.7911  1.4064  0.9753  0.9753  0.8076  0.8076  0.6761  0.6198

 Free energy of the ion-electron system (eV)
  ---------------------------------------------------
  alpha Z        PSCENC =         0.45950737
  Ewald energy   TEWEN  =       333.53210346
  -Hartree energ DENC   =     -1043.38209169
  -exchange      EXHF   =         0.00000000
  -V(xc)+E(xc)   XCENC  =        54.45573984
  PAW double counting   =       501.91804092     -502.24174436
  entropy T*S    EENTRO =        -0.00000000
  eigenvalues    EBANDS =      -219.94941197
  atomic energy  EATOM  =       856.20882267
  Solvation  Ediel_sol  =         0.00000000
  ---------------------------------------------------
  free energy    TOTEN  =       -18.99903376 eV

  energy without entropy =      -18.99903376  energy(sigma->0) =      -18.99903376


--------------------------------------------------------------------------------------------------------




--------------------------------------- Iteration      1(  16)  ---------------------------------------


    POTLOK:  cpu time    0.5216: real time    0.5230
    SETDIJ:  cpu time    0.2541: real time    0.2547
     EDDAV:  cpu time    0.3507: real time    0.3516
       DOS:  cpu time    0.0001: real time    0.0001
    CHARGE:  cpu time    0.2885: real time    0.2893
    MIXING:  cpu time    0.0144: real time    0.0145
    --------------------------------------------
      LOOP:  cpu time    1.4294: real time    1.4331

 eigenvalue-minimisations  :    72
 total energy-change (2. order) : 0.4716169E-03  (-0.1807306E-04)
 number of electron      16.0000000 magnetization      -0.0139587
 augmentation part       -0.1543038 magnetization      -0.0139114

 Broyden mixing:
  rms(total) = 0.95407E-03    rms(broyden)= 0.95390E-03
  rms(prec ) = 0.17065E-02
  weight for this iteration     100.00

 eigenvalues of (default mixing * dielectric matrix)
  average eigenvalue GAMMA=   1.4797
  4.1649  2.6356  2.1095  1.5865  1.0372  1.0372  0.8430  0.8430  0.7338  0.6675
  0.6184

 Free energy of the ion-electron system (eV)
  ---------------------------------------------------
  alpha Z        PSCENC =         0.45950737
  Ewald energy   TEWEN  =       333.53210346
  -Hartree energ DENC   =     -1043.44084801
  -exchange      EXHF   =         0.00000000
  -V(xc)+E(xc)   XCENC  =        54.45699059
  PAW double counting   =       501.96029903     -502.28435532
  entropy T*S    EENTRO =        -0.00000000
  eigenvalues    EBANDS =      -219.89108193
  atomic energy  EATOM  =       856.20882267
  Solvation  Ediel_sol  =         0.00000000
  ---------------------------------------------------
  free energy    TOTEN  =       -18.99856214 eV

  energy without entropy =      -18.99856214  energy(sigma->0) =      -18.99856214


--------------------------------------------------------------------------------------------------------




--------------------------------------- Iteration      1(  17)  ---------------------------------------


    POTLOK:  cpu time    0.5218: real time    0.5232
    SETDIJ:  cpu time    0.2538: real time    0.2544
     EDDAV:  cpu time    0.3520: real time    0.3529
       DOS:  cpu time    0.0001: real time    0.0001
    CHARGE:  cpu time    0.2890: real time    0.2896
    MIXING:  cpu time    0.0144: real time    0.0144
    --------------------------------------------
      LOOP:  cpu time    1.4311: real time    1.4346

 eigenvalue-minimisations  :    72
 total energy-change (2. order) :-0.1843892E-02  (-0.8457711E-05)
 number of electron      16.0000000 magnetization      -0.0057540
 augmentation part       -0.1543409 magnetization      -0.0057133

 Broyden mixing:
  rms(total) = 0.69431E-03    rms(broyden)= 0.69415E-03
  rms(prec ) = 0.10861E-02
  weight for this iteration     100.00

 eigenvalues of (default mixing * dielectric matrix)
  average eigenvalue GAMMA=   1.5238
  4.4458  2.9136  2.3106  1.6234  1.2951  1.0081  0.9235  0.9235  0.8399  0.6207
  0.7199  0.6609

 Free energy of the ion-electron system (eV)
  ---------------------------------------------------
  alpha Z        PSCENC =         0.45950737
  Ewald energy   TEWEN  =       333.53210346
  -Hartree energ DENC   =     -1043.46983945
  -exchange      EXHF   =         0.00000000
  -V(xc)+E(xc)   XCENC  =        54.45574505
  PAW double counting   =       501.96022528     -502.28425656
  entropy T*S    EENTRO =        -0.00000000
  eigenvalues    EBANDS =      -219.86271387
  atomic energy  EATOM  =       856.20882267
  Solvation  Ediel_sol  =         0.00000000
  ---------------------------------------------------
  free energy    TOTEN  =       -19.00040603 eV

  energy without entropy =      -19.00040603  energy(sigma->0) =      -19.00040603


--------------------------------------------------------------------------------------------------------




--------------------------------------- Iteration      1(  18)  ---------------------------------------


    POTLOK:  cpu time    0.5367: real time    0.5382
    SETDIJ:  cpu time    0.2661: real time    0.2668
     EDDAV:  cpu time    0.3226: real time    0.3234
       DOS:  cpu time    0.0001: real time    0.0001
    CHARGE:  cpu time    0.2903: real time    0.2910
    MIXING:  cpu time    0.0156: real time    0.0157
    --------------------------------------------
      LOOP:  cpu time    1.4314: real time    1.4351

 eigenvalue-minimisations  :    64
 total energy-change (2. order) :-0.2652276E-02  (-0.6379698E-05)
 number of electron      16.0000000 magnetization      -0.0016561
 augmentation part       -0.1543284 magnetization      -0.0016440

 Broyden mixing:
  rms(total) = 0.38943E-03    rms(broyden)= 0.38922E-03
  rms(prec ) = 0.58224E-03
  weight for this iteration     100.00

 eigenvalues of (default mixing * dielectric matrix)
  average eigenvalue GAMMA=   1.6285
  5.2270  3.4850  2.3731  1.9736  1.5847  1.0217  1.0217  0.8477  0.8477  0.8353
  0.6865  0.6169  0.6495

 Free energy of the ion-electron system (eV)
  ---------------------------------------------------
  alpha Z        PSCENC =         0.45950737
  Ewald energy   TEWEN  =       333.53210346
  -Hartree energ DENC   =     -1043.48286086
  -exchange      EXHF   =         0.00000000
  -V(xc)+E(xc)   XCENC  =        54.45307037
  PAW double counting   =       501.92529882     -502.24896957
  entropy T*S    EENTRO =        -0.00000000
  eigenvalues    EBANDS =      -219.85003058
  atomic energy  EATOM  =       856.20882267
  Solvation  Ediel_sol  =         0.00000000
  ---------------------------------------------------
  free energy    TOTEN  =       -19.00305831 eV

  energy without entropy =      -19.00305831  energy(sigma->0) =      -19.00305831


--------------------------------------------------------------------------------------------------------




--------------------------------------- Iteration      1(  19)  ---------------------------------------


    POTLOK:  cpu time    0.5231: real time    0.5246
    SETDIJ:  cpu time    0.2591: real time    0.2597
     EDDAV:  cpu time    0.3241: real time    0.3257
       DOS:  cpu time    0.0001: real time    0.0001
    CHARGE:  cpu time    0.2913: real time    0.2920
    MIXING:  cpu time    0.0172: real time    0.0172
    --------------------------------------------
      LOOP:  cpu time    1.4149: real time    1.4193

 eigenvalue-minimisations  :    64
 total energy-change (2. order) :-0.9627637E-03  (-0.1488449E-05)
 number of electron      16.0000000 magnetization       0.0002912
 augmentation part       -0.1543663 magnetization       0.0002898

 Broyden mixing:
  rms(total) = 0.18530E-03    rms(broyden)= 0.18489E-03
  rms(prec ) = 0.35137E-03
  weight for this iteration     100.00

 eigenvalues of (default mixing * dielectric matrix)
  average eigenvalue GAMMA=   1.7516
  6.6999  3.8069  2.4791  2.3177  1.6019  1.2149  0.8673  0.8673  1.0064  0.9486
  0.7761  0.6767  0.6161  0.6440

 Free energy of the ion-electron system (eV)
  ---------------------------------------------------
  alpha Z        PSCENC =         0.45950737
  Ewald energy   TEWEN  =       333.53210346
  -Hartree energ DENC   =     -1043.48671847
  -exchange      EXHF   =         0.00000000
  -V(xc)+E(xc)   XCENC  =        54.45205490
  PAW double counting   =       501.90593693     -502.22946353
  entropy T*S    EENTRO =        -0.00000000
  eigenvalues    EBANDS =      -219.84626442
  atomic energy  EATOM  =       856.20882267
  Solvation  Ediel_sol  =         0.00000000
  ---------------------------------------------------
  free energy    TOTEN  =       -19.00402107 eV

  energy without entropy =      -19.00402107  energy(sigma->0) =      -19.00402107


--------------------------------------------------------------------------------------------------------




--------------------------------------- Iteration      1(  20)  ---------------------------------------


    POTLOK:  cpu time    0.5242: real time    0.5256
    SETDIJ:  cpu time    0.2941: real time    0.2948
     EDDAV:  cpu time    0.3545: real time    0.3554
       DOS:  cpu time    0.0001: real time    0.0001
    CHARGE:  cpu time    0.2908: real time    0.2915
    MIXING:  cpu time    0.0167: real time    0.0167
    --------------------------------------------
      LOOP:  cpu time    1.4805: real time    1.4841

 eigenvalue-minimisations  :    72
 total energy-change (2. order) :-0.2482550E-03  (-0.2736096E-06)
 number of electron      16.0000000 magnetization       0.0008972
 augmentation part       -0.1543785 magnetization       0.0008946

 Broyden mixing:
  rms(total) = 0.11326E-03    rms(broyden)= 0.11279E-03
  rms(prec ) = 0.24083E-03
  weight for this iteration     100.00

 eigenvalues of (default mixing * dielectric matrix)
  average eigenvalue GAMMA=   1.7921
  7.5433  3.9335  2.6019  2.3446  1.6845  1.4678  1.0380  1.0380  0.8649  0.8649
  0.7841  0.7841  0.6737  0.6152  0.6434

 Free energy of the ion-electron system (eV)
  ---------------------------------------------------
  alpha Z        PSCENC =         0.45950737
  Ewald energy   TEWEN  =       333.53210346
  -Hartree energ DENC   =     -1043.48721353
  -exchange      EXHF   =         0.00000000
  -V(xc)+E(xc)   XCENC  =        54.45164240
  PAW double counting   =       501.89685260     -502.22032289
  entropy T*S    EENTRO =        -0.00000000
  eigenvalues    EBANDS =      -219.84566141
  atomic energy  EATOM  =       856.20882267
  Solvation  Ediel_sol  =         0.00000000
  ---------------------------------------------------
  free energy    TOTEN  =       -19.00426933 eV

  energy without entropy =      -19.00426933  energy(sigma->0) =      -19.00426933


--------------------------------------------------------------------------------------------------------




--------------------------------------- Iteration      1(  21)  ---------------------------------------


    POTLOK:  cpu time    0.5227: real time    0.5241
    SETDIJ:  cpu time    0.2585: real time    0.2591
     EDDAV:  cpu time    0.3539: real time    0.3547
       DOS:  cpu time    0.0001: real time    0.0001
    CHARGE:  cpu time    0.2905: real time    0.2912
    MIXING:  cpu time    0.0184: real time    0.0185
    --------------------------------------------
      LOOP:  cpu time    1.4441: real time    1.4478

 eigenvalue-minimisations  :    72
 total energy-change (2. order) : 0.1001309E-04  (-0.1152764E-06)
 number of electron      16.0000000 magnetization       0.0009060
 augmentation part       -0.1543738 magnetization       0.0009061

 Broyden mixing:
  rms(total) = 0.73351E-04    rms(broyden)= 0.72645E-04
  rms(prec ) = 0.16058E-03
  weight for this iteration     100.00

 eigenvalues of (default mixing * dielectric matrix)
  average eigenvalue GAMMA=   1.8193
  7.9845  4.0601  2.6581  2.4614  2.1043  1.5566  1.1680  0.9983  0.8754  0.8754
  0.8880  0.8495  0.7125  0.6679  0.6140  0.6342

 Free energy of the ion-electron system (eV)
  ---------------------------------------------------
  alpha Z        PSCENC =         0.45950737
  Ewald energy   TEWEN  =       333.53210346
  -Hartree energ DENC   =     -1043.48922462
  -exchange      EXHF   =         0.00000000
  -V(xc)+E(xc)   XCENC  =        54.45161730
  PAW double counting   =       501.90006228     -502.22356283
  entropy T*S    EENTRO =        -0.00000000
  eigenvalues    EBANDS =      -219.84358495
  atomic energy  EATOM  =       856.20882267
  Solvation  Ediel_sol  =         0.00000000
  ---------------------------------------------------
  free energy    TOTEN  =       -19.00425932 eV

  energy without entropy =      -19.00425932  energy(sigma->0) =      -19.00425932


--------------------------------------------------------------------------------------------------------




--------------------------------------- Iteration      1(  22)  ---------------------------------------


    POTLOK:  cpu time    0.5467: real time    1.5820
    SETDIJ:  cpu time    0.2537: real time    0.2543
     EDDAV:  cpu time    0.2907: real time    0.2914
       DOS:  cpu time    0.0001: real time    0.0001
    --------------------------------------------
      LOOP:  cpu time    1.0911: real time    2.1277

 eigenvalue-minimisations  :    56
 total energy-change (2. order) :-0.8418394E-05  (-0.7182427E-07)
 number of electron      16.0000000 magnetization       0.0009060
 augmentation part       -0.1543738 magnetization       0.0009061

 Free energy of the ion-electron system (eV)
  ---------------------------------------------------
  alpha Z        PSCENC =         0.45950737
  Ewald energy   TEWEN  =       333.53210346
  -Hartree energ DENC   =     -1043.49100984
  -exchange      EXHF   =         0.00000000
  -V(xc)+E(xc)   XCENC  =        54.45162956
  PAW double counting   =       501.90386117     -502.22738515
  entropy T*S    EENTRO =        -0.00000000
  eigenvalues    EBANDS =      -219.84179698
  atomic energy  EATOM  =       856.20882267
  Solvation  Ediel_sol  =         0.00000000
  ---------------------------------------------------
  free energy    TOTEN  =       -19.00426773 eV

  energy without entropy =      -19.00426773  energy(sigma->0) =      -19.00426773


--------------------------------------------------------------------------------------------------------




 average (electrostatic) potential at core
  the test charge radii are     0.7215  0.9698  0.6991
  (the norm of the test charge is              1.0000)
       1 -81.6466       2 -97.3577       3 -62.1440
 
 
 
 E-fermi :  -7.2296     XC(G=0):  -0.4221     alpha+bet : -0.1589


 spin component 1

 k-point     1 :       0.0000    0.0000    0.0000
  band No.  band energies     occupation 
      1     -26.8971      1.00000
      2     -21.7149      1.00000
      3     -12.8510      1.00000
      4     -11.3507      1.00000
      5     -11.0206      1.00000
      6     -11.0205      1.00000
      7      -7.5340      1.00000
      8      -7.5320      1.00000
      9      -1.8393      0.00000
     10      -1.8214      0.00000
     11      -0.5293      0.00000
     12       0.3009      0.00000
     13       0.4808      0.00000
     14       0.6884      0.00000
     15       0.7541      0.00000
     16       0.7609      0.00000

 spin component 2

 k-point     1 :       0.0000    0.0000    0.0000
  band No.  band energies     occupation 
      1     -26.8971      1.00000
      2     -21.7149      1.00000
      3     -12.8510      1.00000
      4     -11.3507      1.00000
      5     -11.0206      1.00000
      6     -11.0205      1.00000
      7      -7.5340      1.00000
      8      -7.5320      1.00000
      9      -1.8389      0.00000
     10      -1.8211      0.00000
     11      -0.4969      0.00000
     12       0.3044      0.00000
     13       0.5010      0.00000
     14       0.7521      0.00000
     15       0.8070      0.00000
     16       0.8247      0.00000


--------------------------------------------------------------------------------------------------------


 soft charge-density along one line, spin component           1
         0         1         2         3         4         5         6         7         8         9
 total charge-density along one line
 
 soft charge-density along one line, spin component           2
         0         1         2         3         4         5         6         7         8         9
 total charge-density along one line
 
 pseudopotential strength for first ion, spin component:           1
 13.954  -0.555  -0.011   0.128   0.037   0.001  -0.007  -0.002
 -0.555   0.126   0.001  -0.016  -0.004  -0.000   0.003   0.001
 -0.011   0.001 -10.666   0.013   0.004   0.337  -0.002  -0.001
  0.128  -0.016   0.013 -10.810  -0.039  -0.002   0.359   0.006
  0.037  -0.004   0.004  -0.039 -10.676  -0.001   0.006   0.338
  0.001  -0.000   0.337  -0.002  -0.001   0.112   0.001   0.000
 -0.007   0.003  -0.002   0.359   0.006   0.001   0.106  -0.002
 -0.002   0.001  -0.001   0.006   0.338   0.000  -0.002   0.112
 pseudopotential strength for first ion, spin component:           2
 13.954  -0.555  -0.011   0.128   0.037   0.001  -0.007  -0.002
 -0.555   0.126   0.001  -0.016  -0.004  -0.000   0.003   0.001
 -0.011   0.001 -10.666   0.013   0.004   0.337  -0.002  -0.001
  0.128  -0.016   0.013 -10.810  -0.039  -0.002   0.359   0.006
  0.037  -0.004   0.004  -0.039 -10.676  -0.001   0.006   0.338
  0.001  -0.000   0.337  -0.002  -0.001   0.112   0.001   0.000
 -0.007   0.003  -0.002   0.359   0.006   0.001   0.106  -0.002
 -0.002   0.001  -0.001   0.006   0.338   0.000  -0.002   0.112
 total augmentation occupancy for first ion, spin component:           1
  1.915   0.160  -0.015   0.166   0.045   0.005  -0.062  -0.018
  0.160   0.049   0.017  -0.196  -0.055   0.004  -0.048  -0.014
 -0.015   0.017   1.546   0.007   0.001   0.118  -0.013  -0.004
  0.166  -0.196   0.007   1.513  -0.000  -0.013   0.267   0.043
  0.045  -0.055   0.001  -0.000   1.549  -0.004   0.043   0.129
  0.005   0.004   0.118  -0.013  -0.004   0.013  -0.004  -0.001
 -0.062  -0.048  -0.013   0.267   0.043  -0.004   0.056   0.012
 -0.018  -0.014  -0.004   0.043   0.129  -0.001   0.012   0.016
 total augmentation occupancy for first ion, spin component:           2
 -0.000   0.000   0.000  -0.000  -0.000  -0.000   0.000   0.000
  0.000  -0.000  -0.000   0.000   0.000  -0.000   0.000   0.000
  0.000  -0.000  -0.000  -0.000  -0.000  -0.000   0.000  -0.000
 -0.000   0.000  -0.000  -0.000   0.000  -0.000   0.000   0.000
 -0.000   0.000  -0.000   0.000   0.000  -0.000  -0.000  -0.000
 -0.000  -0.000  -0.000  -0.000  -0.000  -0.000  -0.000  -0.000
  0.000   0.000   0.000   0.000  -0.000  -0.000   0.000   0.000
  0.000   0.000  -0.000   0.000  -0.000  -0.000   0.000  -0.000


------------------------ aborting loop because EDIFF is reached ----------------------------------------


 


 total charge     
 
# of ion       s       p       d       tot
------------------------------------------
    1        1.621   3.469   0.000   5.090
    2        1.369   2.587   0.000   3.956
    3        0.944   1.762   0.000   2.706
--------------------------------------------------
tot          3.934   7.818   0.000  11.752
 


 magnetization (x)
 
# of ion       s       p       d       tot
------------------------------------------
    1       -0.000  -0.000   0.000  -0.000
    2       -0.000  -0.000   0.000  -0.000
    3        0.000  -0.000   0.000  -0.000
--------------------------------------------------
tot         -0.000  -0.000   0.000  -0.000
 
    CHARGE:  cpu time    0.2882: real time    0.2889
    FORLOC:  cpu time    0.0195: real time    0.0195
    FORNL :  cpu time    1.6206: real time    1.6311
    STRESS:  cpu time    5.1284: real time    5.1418
    FORCOR:  cpu time    0.5006: real time    0.5017
    FORHAR:  cpu time    0.0755: real time    0.0757
    MIXING:  cpu time    0.0168: real time    0.0168
    OFIELD:  cpu time    0.0001: real time    0.0001

  FORCE on cell =-STRESS in cart. coord.  units (eV):
  Direction    XX          YY          ZZ          XY          YZ          ZX
  --------------------------------------------------------------------------------------
  Alpha Z     0.45951     0.45951     0.45951
  Ewald     -47.77410  -109.11032   490.41651   -14.97387   -47.45570   202.34113
  Hartree   282.87422   254.89202   505.72577    -6.93864   -21.62700    91.40298
  E(xc)     -65.92900   -66.06355   -64.59358    -0.03433    -0.11224     0.45861
  Local    -493.99655  -409.73088 -1207.90640    20.73461    65.25550  -277.10724
  n-local    48.01284    47.03848    55.63769    -0.18283    -0.53493     2.95501
  augment   -11.47766   -11.52362   -11.85760     0.01475     0.07641     0.00211
  Kinetic   288.19861   293.19349   240.50820     1.19749     3.93638   -16.63034
  Fock        0.00000     0.00000     0.00000     0.00000     0.00000     0.00000
  -------------------------------------------------------------------------------------
  Total       0.36786    -0.84487     8.39010    -0.18282    -0.46157     3.42225
  in kB       0.24645    -0.56601     5.62082    -0.12248    -0.30922     2.29269
  external pressure =        1.77 kB  Pullay stress =        0.00 kB


 VOLUME and BASIS-vectors are now :
 -----------------------------------------------------------------------------
  energy-cutoff  :      400.00
  volume of cell :     2391.54
      direct lattice vectors                 reciprocal lattice vectors
    13.675000191  0.000000000  0.000000000     0.073126142  0.042219398  0.000000000
    -6.837500095 11.842897562  0.000000000     0.000000000  0.084438795  0.000000000
     0.000000000  0.000000000 14.767000198     0.000000000  0.000000000  0.067718561

  length of vectors
    13.675000191 13.675000191 14.767000198     0.084438795  0.084438795  0.067718561


 FORCES acting on ions
    electron-ion (+dipol)            ewald-force                    non-local-force                 convergence-correction
 -----------------------------------------------------------------------------------------------
   -.693E+02 0.190E+02 -.234E+03   0.840E+02 -.235E+02 0.286E+03   -.156E+02 0.489E+01 -.553E+02   -.681E-04 0.384E-04 0.168E-03
   0.789E+02 -.152E+02 0.236E+03   -.781E+02 0.149E+02 -.233E+03   -.418E+01 0.918E+00 -.130E+02   -.217E-03 0.577E-04 0.318E-03
   0.813E+01 -.895E+01 0.588E+02   -.598E+01 0.857E+01 -.525E+02   0.205E+01 -.707E+00 0.757E+01   -.636E-04 0.245E-04 0.131E-03
 -----------------------------------------------------------------------------------------------
   0.177E+02 -.510E+01 0.607E+02   -.711E-14 0.178E-14 -.284E-13   -.177E+02 0.510E+01 -.607E+02   -.349E-03 0.121E-03 0.617E-03
 
 
 POSITION                                       TOTAL-FORCE (eV/Angst)
 -----------------------------------------------------------------------------------
      7.63343      6.09232     10.06274        -0.881946      0.401205     -3.712296
      6.83593      6.27449      7.55235        -3.322648      0.692040    -10.146779
      7.29287      6.19361      8.88067         4.204594     -1.093245     13.859076
 -----------------------------------------------------------------------------------
    total drift:                               -0.000178     -0.000551     -0.000533


--------------------------------------------------------------------------------------------------------



  FREE ENERGIE OF THE ION-ELECTRON SYSTEM (eV)
  ---------------------------------------------------
  free  energy   TOTEN  =       -19.00426773 eV

  energy  without entropy=      -19.00426773  energy(sigma->0) =      -19.00426773
 


--------------------------------------------------------------------------------------------------------


    POTLOK:  cpu time    0.7809: real time    0.7828


--------------------------------------------------------------------------------------------------------


 stress matrix after NEB project (eV)
      0.36786     -0.18282      3.42225
     -0.18282     -0.84487     -0.46157
      3.42225     -0.46157      8.39010
  FORCES: max atom, RMS    14.524041   10.648063
  FORCE total and by dimension   18.442986   13.859076
  Stress total and by dimension    9.754969    8.390095
 Quasi-Newton relaxation of ions (Broydens 2nd method)
  g(Force)  = 0.164E+02   g(Stress)= 0.000E+00

 Reset! Starting new Quasi-Newton update for ions 


--------------------------------------------------------------------------------------------------------


    WAVPRE:  cpu time    0.0688: real time    0.0807
    FEWALD:  cpu time    0.0028: real time    0.0028

 real space projection operators:
  total allocation   :        737.69 KBytes
  max/ min on nodes  :        185.94        183.25

    ORTHCH:  cpu time    0.0365: real time    0.0366
     LOOP+:  cpu time   36.4495: real time   37.6636


--------------------------------------- Iteration      2(   1)  ---------------------------------------


    POTLOK:  cpu time    0.5276: real time    0.5474
    SETDIJ:  cpu time    0.2560: real time    0.2566
     EDDAV:  cpu time    0.3236: real time    0.3243
       DOS:  cpu time    0.0001: real time    0.0001
    CHARGE:  cpu time    0.2925: real time    0.2932
    MIXING:  cpu time    0.0098: real time    0.0098
    --------------------------------------------
      LOOP:  cpu time    1.4096: real time    1.4314

 eigenvalue-minimisations  :    64
 total energy-change (2. order) : 0.4005039E+03  (-0.1546745E+03)
 number of electron      16.0000000 magnetization       0.0004062
 augmentation part        0.3594196 magnetization       0.0014375

 Broyden mixing:
  rms(total) = 0.18103E+01    rms(broyden)= 0.18051E+01
  rms(prec ) = 0.20448E+01
  weight for this iteration     100.00

 Free energy of the ion-electron system (eV)
  ---------------------------------------------------
  alpha Z        PSCENC =         0.45950737
  Ewald energy   TEWEN  =       909.68822281
  -Hartree energ DENC   =     -1063.80948081
  -exchange      EXHF   =         0.00000000
  -V(xc)+E(xc)   XCENC  =        56.94839310
  PAW double counting   =       501.90409291     -502.22760949
  entropy T*S    EENTRO =        -0.00000000
  eigenvalues    EBANDS =      -377.67235729
  atomic energy  EATOM  =       856.20882267
  Solvation  Ediel_sol  =         0.00000000
  ---------------------------------------------------
  free energy    TOTEN  =       381.49959128 eV

  energy without entropy =      381.49959128  energy(sigma->0) =      381.49959128


--------------------------------------------------------------------------------------------------------




--------------------------------------- Iteration      2(   2)  ---------------------------------------


    POTLOK:  cpu time    0.5230: real time    0.5244
    SETDIJ:  cpu time    0.2541: real time    0.2547
     EDDAV:  cpu time    0.3826: real time    0.3835
       DOS:  cpu time    0.0001: real time    0.0001
    CHARGE:  cpu time    0.2904: real time    0.2911
    MIXING:  cpu time    0.0106: real time    0.0106
    --------------------------------------------
      LOOP:  cpu time    1.4608: real time    1.4645

 eigenvalue-minimisations  :    80
 total energy-change (2. order) :-0.1703296E+01  (-0.1153637E+02)
 number of electron      15.9999999 magnetization       0.0002787
 augmentation part        0.4594217 magnetization      -0.0019284

 Broyden mixing:
  rms(total) = 0.16207E+01    rms(broyden)= 0.16188E+01
  rms(prec ) = 0.17785E+01
  weight for this iteration     100.00

 eigenvalues of (default mixing * dielectric matrix)
  average eigenvalue GAMMA=   1.2120
  1.2120

 Free energy of the ion-electron system (eV)
  ---------------------------------------------------
  alpha Z        PSCENC =         0.45950737
[...]
  Kinetic   284.73180   289.99948   236.15725     1.23737     3.86565   -17.32084
  Fock        0.00000     0.00000     0.00000     0.00000     0.00000     0.00000
  -------------------------------------------------------------------------------------
  Total      -0.83598    -0.84749    -0.72030    -0.00222    -0.01013     0.04533
  in kB      -0.56005    -0.56776    -0.48255    -0.00149    -0.00679     0.03037
  external pressure =       -0.54 kB  Pullay stress =        0.00 kB


 VOLUME and BASIS-vectors are now :
 -----------------------------------------------------------------------------
  energy-cutoff  :      400.00
  volume of cell :     2391.54
      direct lattice vectors                 reciprocal lattice vectors
    13.675000191  0.000000000  0.000000000     0.073126142  0.042219398  0.000000000
    -6.837500095 11.842897562  0.000000000     0.000000000  0.084438795  0.000000000
     0.000000000  0.000000000 14.767000198     0.000000000  0.000000000  0.067718561

  length of vectors
    13.675000191 13.675000191 14.767000198     0.084438795  0.084438795  0.067718561


 FORCES acting on ions
    electron-ion (+dipol)            ewald-force                    non-local-force                 convergence-correction
 -----------------------------------------------------------------------------------------------
   -.773E+02 0.173E+02 -.243E+03   0.961E+02 -.215E+02 0.302E+03   -.188E+02 0.419E+01 -.587E+02   0.896E-03 -.729E-03 0.127E-02
   0.630E+02 -.140E+02 0.198E+03   -.631E+02 0.141E+02 -.199E+03   0.153E+00 -.336E-01 0.475E+00   0.244E-03 -.349E-04 0.766E-03
   0.308E+02 -.689E+01 0.963E+02   -.330E+02 0.738E+01 -.103E+03   0.216E+01 -.481E+00 0.673E+01   -.143E-03 -.314E-04 -.443E-03
 -----------------------------------------------------------------------------------------------
   0.165E+02 -.368E+01 0.514E+02   0.711E-14 0.178E-14 0.284E-13   -.165E+02 0.368E+01 -.514E+02   0.997E-03 -.796E-03 0.159E-02
 
 
 POSITION                                       TOTAL-FORCE (eV/Angst)
 -----------------------------------------------------------------------------------
      7.65053      6.09831     10.07062         0.000814      0.000040      0.003850
      6.81855      6.28398      7.47129         0.002716     -0.000700      0.007135
      7.29315      6.17812      8.95385        -0.003531      0.000660     -0.010985
 -----------------------------------------------------------------------------------
    total drift:                               -0.000560      0.000713      0.000777


--------------------------------------------------------------------------------------------------------



  FREE ENERGIE OF THE ION-ELECTRON SYSTEM (eV)
  ---------------------------------------------------
  free  energy   TOTEN  =       -19.84230966 eV

  energy  without entropy=      -19.84230966  energy(sigma->0) =      -19.84230966
 
 d Force =-0.6891523E-07[-0.171E-05, 0.157E-05]  d Energy = 0.1190534E-05-0.126E-05
 d Force = 0.1902224E-01[ 0.190E-01, 0.190E-01]  d Ewald  = 0.1902224E-01 0.150E-09


--------------------------------------------------------------------------------------------------------


    POTLOK:  cpu time    0.7779: real time    0.7911


--------------------------------------------------------------------------------------------------------


 stress matrix after NEB project (eV)
     -0.83598     -0.00222      0.04533
     -0.00222     -0.84749     -0.01013
      0.04533     -0.01013     -0.72030
  FORCES: max atom, RMS     0.011558    0.008324
  FORCE total and by dimension    0.014417    0.010985
  Stress total and by dimension    1.392930    0.847489
 Quasi-Newton relaxation of ions (Broydens 2nd method)
  g(Force)  = 0.100E-04   g(Stress)= 0.000E+00

 retain information from N=  1 steps
 eigenvalues of (default step * inverse Hessian matrix)
  average eigenvalue of G=   0.0760
 eigenvalue spectrum of G is  0.0760


--------------------------------------------------------------------------------------------------------


    WAVPRE:  cpu time    0.0726: real time    0.0861
    FEWALD:  cpu time    0.0026: real time    0.0026

 real space projection operators:
  total allocation   :        737.88 KBytes
  max/ min on nodes  :        186.50        182.94

    ORTHCH:  cpu time    0.0364: real time    0.0365
     LOOP+:  cpu time   11.4230: real time   11.5142


--------------------------------------- Iteration     17(   1)  ---------------------------------------


    POTLOK:  cpu time    0.5254: real time    0.5355
    SETDIJ:  cpu time    0.2543: real time    0.2550
     EDDAV:  cpu time    0.3815: real time    0.3827
       DOS:  cpu time    0.0001: real time    0.0001
    CHARGE:  cpu time    0.2906: real time    0.2913
    MIXING:  cpu time    0.0097: real time    0.0097
    --------------------------------------------
      LOOP:  cpu time    1.4615: real time    1.4742

 eigenvalue-minimisations  :    80
 total energy-change (2. order) :-0.1002731E-05  (-0.4910403E-05)
 number of electron      16.0000000 magnetization       0.0000000
 augmentation part       -0.1366212 magnetization       0.0000000

 Broyden mixing:
  rms(total) = 0.27687E-03    rms(broyden)= 0.27609E-03
  rms(prec ) = 0.32538E-03
  weight for this iteration     100.00

 Free energy of the ion-electron system (eV)
  ---------------------------------------------------
  alpha Z        PSCENC =         0.45950737
  Ewald energy   TEWEN  =       316.91513081
  -Hartree energ DENC   =     -1024.88496608
  -exchange      EXHF   =         0.00000000
  -V(xc)+E(xc)   XCENC  =        54.01288362
  PAW double counting   =       494.18637999     -494.36493814
  entropy T*S    EENTRO =        -0.00000000
  eigenvalues    EBANDS =      -222.37513089
  atomic energy  EATOM  =       856.20882267
  Solvation  Ediel_sol  =         0.00000000
  ---------------------------------------------------
  free energy    TOTEN  =       -19.84231063 eV

  energy without entropy =      -19.84231063  energy(sigma->0) =      -19.84231063


--------------------------------------------------------------------------------------------------------




--------------------------------------- Iteration     17(   2)  ---------------------------------------


    POTLOK:  cpu time    0.5251: real time    0.5267
    SETDIJ:  cpu time    0.2547: real time    0.2553
     EDDAV:  cpu time    0.3223: real time    0.3233
       DOS:  cpu time    0.0001: real time    0.0001
    --------------------------------------------
      LOOP:  cpu time    1.1022: real time    1.1054

 eigenvalue-minimisations  :    64
 total energy-change (2. order) :-0.5261098E-06  (-0.1741214E-06)
 number of electron      16.0000000 magnetization       0.0000000
 augmentation part       -0.1366212 magnetization       0.0000000

 Free energy of the ion-electron system (eV)
  ---------------------------------------------------
  alpha Z        PSCENC =         0.45950737
  Ewald energy   TEWEN  =       316.91513081
  -Hartree energ DENC   =     -1024.89163811
  -exchange      EXHF   =         0.00000000
  -V(xc)+E(xc)   XCENC  =        54.01318658
  PAW double counting   =       494.20477744     -494.38339221
  entropy T*S    EENTRO =        -0.00000000
  eigenvalues    EBANDS =      -222.36870572
  atomic energy  EATOM  =       856.20882267
  Solvation  Ediel_sol  =         0.00000000
  ---------------------------------------------------
  free energy    TOTEN  =       -19.84231116 eV

  energy without entropy =      -19.84231116  energy(sigma->0) =      -19.84231116


--------------------------------------------------------------------------------------------------------




 average (electrostatic) potential at core
  the test charge radii are     0.7215  0.9698  0.6991
  (the norm of the test charge is              1.0000)
       1 -82.5769       2 -97.0259       3 -62.5544
 
 
 
 E-fermi :  -7.0575     XC(G=0):  -0.4568     alpha+bet : -0.1589


 spin component 1

 k-point     1 :       0.0000    0.0000    0.0000
  band No.  band energies     occupation 
      1     -28.3400      1.00000
      2     -20.4501      1.00000
      3     -13.2585      1.00000
      4     -11.5129      1.00000
      5     -11.4419      1.00000
      6     -11.4417      1.00000
      7      -7.3697      1.00000
      8      -7.3696      1.00000
      9      -1.8972      0.00000
     10      -1.8971      0.00000
     11      -0.6160      0.00000
     12       0.2491      0.00000
     13       0.3663      0.00000
     14       0.5412      0.00000
     15       0.7517      0.00000
     16       0.7560      0.00000

 spin component 2

 k-point     1 :       0.0000    0.0000    0.0000
  band No.  band energies     occupation 
      1     -28.3400      1.00000
      2     -20.4501      1.00000
      3     -13.2585      1.00000
      4     -11.5129      1.00000
      5     -11.4419      1.00000
      6     -11.4417      1.00000
      7      -7.3697      1.00000
      8      -7.3696      1.00000
      9      -1.8972      0.00000
     10      -1.8971      0.00000
     11      -0.6160      0.00000
     12       0.2491      0.00000
     13       0.3663      0.00000
     14       0.5412      0.00000
     15       0.7517      0.00000
     16       0.7560      0.00000


--------------------------------------------------------------------------------------------------------


 soft charge-density along one line, spin component           1
         0         1         2         3         4         5         6         7         8         9
 total charge-density along one line
 
 soft charge-density along one line, spin component           2
         0         1         2         3         4         5         6         7         8         9
 total charge-density along one line
 
 pseudopotential strength for first ion, spin component:           1
 14.095  -0.576  -0.010   0.145   0.046   0.001  -0.008  -0.003
 -0.576   0.130   0.001  -0.017  -0.005  -0.000   0.003   0.001
 -0.010   0.001 -10.846   0.011   0.004   0.378  -0.002  -0.001
  0.145  -0.017   0.011 -11.001  -0.050  -0.002   0.401   0.007
  0.046  -0.005   0.004  -0.050 -10.861  -0.001   0.007   0.381
  0.001  -0.000   0.378  -0.002  -0.001   0.099   0.000   0.000
 -0.008   0.003  -0.002   0.401   0.007   0.000   0.093  -0.002
 -0.003   0.001  -0.001   0.007   0.381   0.000  -0.002   0.099
 pseudopotential strength for first ion, spin component:           2
 14.095  -0.576  -0.010   0.145   0.046   0.001  -0.008  -0.003
 -0.576   0.130   0.001  -0.017  -0.005  -0.000   0.003   0.001
 -0.010   0.001 -10.846   0.011   0.004   0.378  -0.002  -0.001
  0.145  -0.017   0.011 -11.001  -0.050  -0.002   0.401   0.007
  0.046  -0.005   0.004  -0.050 -10.861  -0.001   0.007   0.381
  0.001  -0.000   0.378  -0.002  -0.001   0.099   0.000   0.000
 -0.008   0.003  -0.002   0.401   0.007   0.000   0.093  -0.002
 -0.003   0.001  -0.001   0.007   0.381   0.000  -0.002   0.099
 total augmentation occupancy for first ion, spin component:           1
  1.919   0.178  -0.010   0.141   0.045   0.006  -0.078  -0.025
  0.178   0.056   0.015  -0.210  -0.067   0.004  -0.053  -0.017
 -0.010   0.015   1.533  -0.006  -0.002   0.127  -0.011  -0.004
  0.141  -0.210  -0.006   1.610   0.025  -0.011   0.279   0.049
  0.045  -0.067  -0.002   0.025   1.541  -0.004   0.049   0.141
  0.006   0.004   0.127  -0.011  -0.004   0.015  -0.003  -0.001
 -0.078  -0.053  -0.011   0.279   0.049  -0.003   0.059   0.014
 -0.025  -0.017  -0.004   0.049   0.141  -0.001   0.014   0.019
 total augmentation occupancy for first ion, spin component:           2
 -0.000  -0.000   0.000  -0.000  -0.000   0.000  -0.000   0.000
 -0.000  -0.000   0.000   0.000   0.000  -0.000   0.000  -0.000
  0.000   0.000  -0.000  -0.000   0.000   0.000  -0.000  -0.000
 -0.000   0.000  -0.000   0.000   0.000   0.000   0.000   0.000
 -0.000   0.000   0.000   0.000  -0.000   0.000  -0.000   0.000
  0.000  -0.000   0.000   0.000   0.000   0.000   0.000   0.000
 -0.000   0.000  -0.000   0.000  -0.000   0.000  -0.000   0.000
  0.000  -0.000  -0.000   0.000   0.000   0.000   0.000   0.000


------------------------ aborting loop because EDIFF is reached ----------------------------------------


 


 total charge     
 
# of ion       s       p       d       tot
------------------------------------------
    1        1.633   3.533   0.000   5.165
    2        1.357   2.411   0.000   3.768
    3        0.926   1.689   0.000   2.615
--------------------------------------------------
tot          3.916   7.632   0.000  11.548
 


 magnetization (x)
 
# of ion       s       p       d       tot
------------------------------------------
    1        0.000  -0.000   0.000  -0.000
    2       -0.000  -0.000   0.000  -0.000
    3        0.000  -0.000   0.000   0.000
--------------------------------------------------
tot         -0.000  -0.000   0.000  -0.000
 
    CHARGE:  cpu time    0.2892: real time    0.2899
    FORLOC:  cpu time    0.0195: real time    0.0196
    FORNL :  cpu time    1.6180: real time    1.6223
    STRESS:  cpu time    5.1203: real time    5.1416
    FORCOR:  cpu time    0.4967: real time    0.4981
    FORHAR:  cpu time    0.0744: real time    0.0746
    MIXING:  cpu time    0.0099: real time    0.0099
    OFIELD:  cpu time    0.0000: real time    0.0000

  FORCE on cell =-STRESS in cart. coord.  units (eV):
  Direction    XX          YY          ZZ          XY          YZ          ZX
  --------------------------------------------------------------------------------------
  Alpha Z     0.45951     0.45951     0.45951
  Ewald     -47.88180  -109.67168   474.46861   -14.50903   -44.67259   200.16341
  Hartree   277.76646   248.80586   498.32033    -6.79824   -20.59556    92.28474
  E(xc)     -65.44300   -65.60249   -63.97209    -0.03745    -0.11705     0.52450
  Local    -486.86692  -401.17479 -1183.11555    20.11966    61.55468  -275.80960
  n-local    47.90552    47.85187    48.40207    -0.01271    -0.03966     0.17827
  augment   -11.51201   -11.52056   -11.43451    -0.00194    -0.00610     0.02806
  Kinetic   284.73766   290.00500   236.16405     1.23724     3.86530   -17.31999
  Fock        0.00000     0.00000     0.00000     0.00000     0.00000     0.00000
  -------------------------------------------------------------------------------------
  Total      -0.83458    -0.84729    -0.70758    -0.00248    -0.01098     0.04938
  in kB      -0.55911    -0.56763    -0.47404    -0.00166    -0.00736     0.03308
  external pressure =       -0.53 kB  Pullay stress =        0.00 kB


 VOLUME and BASIS-vectors are now :
 -----------------------------------------------------------------------------
  energy-cutoff  :      400.00
  volume of cell :     2391.54
      direct lattice vectors                 reciprocal lattice vectors
    13.675000191  0.000000000  0.000000000     0.073126142  0.042219398  0.000000000
    -6.837500095 11.842897562  0.000000000     0.000000000  0.084438795  0.000000000
     0.000000000  0.000000000 14.767000198     0.000000000  0.000000000  0.067718561

  length of vectors
    13.675000191 13.675000191 14.767000198     0.084438795  0.084438795  0.067718561


 FORCES acting on ions
    electron-ion (+dipol)            ewald-force                    non-local-force                 convergence-correction
 -----------------------------------------------------------------------------------------------
   -.773E+02 0.173E+02 -.243E+03   0.961E+02 -.215E+02 0.302E+03   -.188E+02 0.419E+01 -.587E+02   0.204E-02 -.773E-03 0.506E-02
   0.630E+02 -.140E+02 0.198E+03   -.631E+02 0.141E+02 -.199E+03   0.150E+00 -.331E-01 0.469E+00   0.168E-03 -.153E-04 0.992E-03
   0.308E+02 -.689E+01 0.962E+02   -.330E+02 0.737E+01 -.103E+03   0.216E+01 -.481E+00 0.673E+01   0.115E-02 -.291E-03 0.367E-02
 -----------------------------------------------------------------------------------------------
   0.165E+02 -.368E+01 0.514E+02   0.711E-14 0.000E+00 -.284E-13   -.165E+02 0.368E+01 -.515E+02   0.336E-02 -.108E-02 0.973E-02
 
 
 POSITION                                       TOTAL-FORCE (eV/Angst)
 -----------------------------------------------------------------------------------
      7.65049      6.09832     10.07055         0.002094     -0.000378      0.007557
      6.81860      6.28397      7.47139         0.000270     -0.000123     -0.000652
      7.29313      6.17812      8.95381        -0.002364      0.000500     -0.006905
 -----------------------------------------------------------------------------------
    total drift:                               -0.000545      0.000552     -0.000162


--------------------------------------------------------------------------------------------------------



  FREE ENERGIE OF THE ION-ELECTRON SYSTEM (eV)
  ---------------------------------------------------
  free  energy   TOTEN  =       -19.84231116 eV

  energy  without entropy=      -19.84231116  energy(sigma->0) =      -19.84231116
 
 d Force = 0.3205879E-06[-0.386E-06, 0.103E-05]  d Energy = 0.1501028E-05-0.118E-05
 d Force =-0.4469608E-01[-0.447E-01,-0.447E-01]  d Ewald  =-0.4469608E-01-0.969E-10


--------------------------------------------------------------------------------------------------------


    POTLOK:  cpu time    0.7754: real time    0.7775


--------------------------------------------------------------------------------------------------------


 stress matrix after NEB project (eV)
     -0.83458     -0.00248      0.04938
     -0.00248     -0.84729     -0.01098
      0.04938     -0.01098     -0.70758
  FORCES: max atom, RMS     0.007850    0.006209
  FORCE total and by dimension    0.010755    0.007557
  Stress total and by dimension    1.385724    0.847294
 Quasi-Newton relaxation of ions (Broydens 2nd method)
  g(Force)  = 0.558E-05   g(Stress)= 0.000E+00

 retain information from N=  2 steps
 eigenvalues of (default step * inverse Hessian matrix)
  average eigenvalue of G=   0.3716
 eigenvalue spectrum of G is  0.1854  0.5578


--------------------------------------------------------------------------------------------------------


  
 reached required accuracy - stopping structural energy minimisation
     LOOP+:  cpu time   11.2281: real time   11.3086
    4ORBIT:  cpu time    0.0000: real time    0.0000
 


 total charge     
 
# of ion       s       p       d       tot
------------------------------------------
    1        1.633   3.533   0.000   5.165
    2        1.357   2.411   0.000   3.768
    3        0.926   1.689   0.000   2.615
--------------------------------------------------
tot          3.916   7.632   0.000  11.548
 


 magnetization (x)
 
# of ion       s       p       d       tot
------------------------------------------
    1        0.000  -0.000   0.000  -0.000
    2       -0.000  -0.000   0.000  -0.000
    3        0.000  -0.000   0.000   0.000
--------------------------------------------------
tot         -0.000  -0.000   0.000  -0.000
 

 total amount of memory used by VASP MPI-rank0   148626. kBytes
=======================================================================

   base      :      30000. kBytes
   nonlr-proj:        466. kBytes
   fftplans  :      63994. kBytes
   grid      :      52770. kBytes
   one-center:          6. kBytes
   wavefun   :       1390. kBytes
 
  
  
 General timing and accounting informations for this job:
 ========================================================
  
                  Total CPU time used (sec):      463.000
                            User time (sec):      437.824
                          System time (sec):       25.176
                         Elapsed time (sec):      468.877
  
                   Maximum memory used (kb):      260928.
                   Average memory used (kb):           0.
  
                          Minor page faults:       118827
                          Major page faults:            2
                 Voluntary context switches:         1509
