 vasp.5.4.4.18Apr17-6-g9f103f2a35 (build Dec 31 2018 11:41:54) complex          
  
 executed on             LinuxIFC date 2022.07.07  15:43:49
 running on   16 total cores
 distrk:  each k-point on   16 cores,    1 groups
 distr:  one band on NCORES_PER_BAND=   4 cores,    4 groups


--------------------------------------------------------------------------------------------------------


 INCAR:
 POTCAR:    PAW_PBE S 17Jan2003                   
 POTCAR:   PAW_PBE H 15Jun2001                    
 POTCAR:    PAW_PBE S 17Jan2003                   
   VRHFIN =S : s2p4                                                             
   LEXCH  = PE                                                                  
   EATOM  =   276.8230 eV,   20.3459 Ry                                         
                                                                                
   TITEL  = PAW_PBE S 17Jan2003                                                 
   LULTRA =        F    use ultrasoft PP ?                                      
   IUNSCR =        1    unscreen: 0-lin 1-nonlin 2-no                           
   RPACOR =    1.500    partial core radius                                     
   POMASS =   32.066; ZVAL   =    6.000    mass and valenz                      
   RCORE  =    1.900    outmost cutoff radius                                   
   RWIGS  =    2.200; RWIGS  =    1.164    wigner-seitz radius (au A)           
   ENMAX  =  280.000; ENMIN  =  194.016 eV                                      
   ICORE  =        2    local potential                                         
   LCOR   =        T    correct aug charges                                     
   LPAW   =        T    paw PP                                                  
   EAUG   =  335.092                                                            
   DEXC   =     .000                                                            
   RMAX   =    2.867    core radius for proj-oper                               
   RAUG   =    1.300    factor for augmentation sphere                          
   RDEP   =    1.954    radius for radial grids                                 
   QCUT   =   -4.360; QGAM   =    8.721    optimization parameters              
                                                                                
   Description                                                                  
     l     E      TYP  RCUT    TYP  RCUT                                        
     0   .000     23  1.900                                                     
     0   .000     23  1.900                                                     
     1   .000     23  1.900                                                     
     1   .000     23  1.900                                                     
     2   .000     23  1.900                                                     
  local pseudopotential read in
  partial core-charges read in
  atomic valenz-charges read in
  non local Contribution for L=           0  read in
    real space projection operators read in
  non local Contribution for L=           0  read in
    real space projection operators read in
  non local Contribution for L=           1  read in
    real space projection operators read in
  non local Contribution for L=           1  read in
    real space projection operators read in
    PAW grid and wavefunctions read in
 
   number of l-projection  operators is LMAX  =           4
   number of lm-projection operators is LMMAX =           8
 
 POTCAR:   PAW_PBE H 15Jun2001                    
   VRHFIN =H: ultrasoft test                                                    
   LEXCH  = PE                                                                  
   EATOM  =    12.4884 eV,     .9179 Ry                                         
                                                                                
   TITEL  = PAW_PBE H 15Jun2001                                                 
   LULTRA =        F    use ultrasoft PP ?                                      
   IUNSCR =        0    unscreen: 0-lin 1-nonlin 2-no                           
   RPACOR =     .000    partial core radius                                     
   POMASS =    1.000; ZVAL   =    1.000    mass and valenz                      
   RCORE  =    1.100    outmost cutoff radius                                   
   RWIGS  =     .700; RWIGS  =     .370    wigner-seitz radius (au A)           
   ENMAX  =  250.000; ENMIN  =  200.000 eV                                      
   RCLOC  =     .701    cutoff for local pot                                    
   LCOR   =        T    correct aug charges                                     
   LPAW   =        T    paw PP                                                  
   EAUG   =  400.000                                                            
   RMAX   =    2.174    core radius for proj-oper                               
   RAUG   =    1.200    factor for augmentation sphere                          
   RDEP   =    1.112    radius for radial grids                                 
   QCUT   =   -5.749; QGAM   =   11.498    optimization parameters              
                                                                                
   Description                                                                  
     l     E      TYP  RCUT    TYP  RCUT                                        
     0   .000     23  1.100                                                     
     0   .500     23  1.100                                                     
     1  -.300     23  1.100                                                     
  local pseudopotential read in
  atomic valenz-charges read in
  non local Contribution for L=           0  read in
    real space projection operators read in
  non local Contribution for L=           0  read in
    real space projection operators read in
  non local Contribution for L=           1  read in
    real space projection operators read in
    PAW grid and wavefunctions read in
 
   number of l-projection  operators is LMAX  =           3
   number of lm-projection operators is LMMAX =           5
 

 ----------------------------------------------------------------------------- 
|                                                                             |
|  ADVICE TO THIS USER RUNNING 'VASP/VAMP'   (HEAR YOUR MASTER'S VOICE ...):  |
|                                                                             |
|      You have a (more or less) 'small supercell' and for smaller cells      |
|      it is recommended  to use the reciprocal-space projection scheme!      |
|      The real space optimization is not  efficient for small cells and it   |
|      is also less accurate ...                                              |
|      Therefore set LREAL=.FALSE. in the  INCAR file                         |
|                                                                             |
 ----------------------------------------------------------------------------- 

 Optimization of the real space projectors (new method)

 maximal supplied QI-value         = 19.84
 optimisation between [QCUT,QGAM] = [ 10.12, 20.44] = [ 28.68,116.96] Ry 
 Optimized for a Real-space Cutoff    1.42 Angstroem

   l    n(q)    QCUT    max X(q) W(low)/X(q) W(high)/X(q)  e(spline) 
   0      9    10.119     5.487    0.15E-04    0.47E-05    0.66E-08
   0      9    10.119    85.627    0.51E-04    0.92E-04    0.63E-07
   1      8    10.119     3.530    0.37E-05    0.76E-05    0.28E-07
   1      8    10.119    42.714    0.16E-03    0.16E-03    0.23E-06
 Optimization of the real space projectors (new method)

 maximal supplied QI-value         = 34.20
 optimisation between [QCUT,QGAM] = [  9.92, 20.18] = [ 27.55,114.04] Ry 
 Optimized for a Real-space Cutoff    1.34 Angstroem

   l    n(q)    QCUT    max X(q) W(low)/X(q) W(high)/X(q)  e(spline) 
   0      8     9.919     4.436    0.31E-04    0.59E-04    0.66E-07
   0      8     9.919    16.131    0.16E-03    0.20E-03    0.35E-06
   1      8     9.919     4.654    0.19E-03    0.46E-03    0.40E-06
  PAW_PBE S 17Jan2003                   :
 energy of atom  1       EATOM= -276.8230
 kinetic energy error for atom=    0.0046 (will be added to EATOM!!)
 PAW_PBE H 15Jun2001                    :
 energy of atom  2       EATOM=  -12.4884
 kinetic energy error for atom=    0.0098 (will be added to EATOM!!)
 
 
 POSCAR: O  C                                    
  positions in direct lattice
  velocities in cartesian coordinates
 exchange correlation table for  LEXCH =        8
   RHO(1)=    0.500       N(1)  =     2000
   RHO(2)=  100.500       N(2)  =     4000

 VTST: version 3.2, (02/03/18)

 CHAIN: initializing optimizer
 
 OPT: Using VASP Dynamics algorithm
 CHAIN: Read ICHAIN            0
 
 POSCAR: O  C                                    
  positions in direct lattice
  velocities in cartesian coordinates
 


--------------------------------------------------------------------------------------------------------


 ion  position               nearest neighbor table
   1  0.757  0.412  0.709-   3 1.35   2 1.35
   2  0.868  0.466  0.690-   1 1.35
   3  0.730  0.420  0.622-   1 1.35
 
  LATTYP: Found a hexagonal cell.
 ALAT       =    13.6750001907
 C/A-ratio  =     1.0798537472
  
  Lattice vectors:
  
 A1 = (  13.6750001907,   0.0000000000,   0.0000000000)
 A2 = (  -6.8375000954,  11.8428975619,   0.0000000000)
 A3 = (   0.0000000000,   0.0000000000,  14.7670001984)


Analysis of symmetry for initial positions (statically):
=====================================================================
 Subroutine PRICEL returns:
 Original cell was already a primitive cell.
 

 Routine SETGRP: Setting up the symmetry group for a 
 hexagonal supercell.


 Subroutine GETGRP returns: Found  1 space group operations
 (whereof  1 operations were pure point group operations)
 out of a pool of 24 trial point group operations.


The static configuration has the point symmetry C_1 .


Analysis of symmetry for dynamics (positions and initial velocities):
=====================================================================
 Subroutine PRICEL returns:
 Original cell was already a primitive cell.
 

 Routine SETGRP: Setting up the symmetry group for a 
 hexagonal supercell.


 Subroutine GETGRP returns: Found  1 space group operations
 (whereof  1 operations were pure point group operations)
 out of a pool of 24 trial point group operations.


The dynamic configuration has the point symmetry C_1 .


Analysis of structural, dynamic, and magnetic symmetry:
=====================================================================
 Subroutine PRICEL returns:
 Original cell was already a primitive cell.
 

 Routine SETGRP: Setting up the symmetry group for a 
 hexagonal supercell.


 Subroutine GETGRP returns: Found  1 space group operations
 (whereof  1 operations were pure point group operations)
 out of a pool of 24 trial point group operations.


The magnetic configuration has the point symmetry C_1 .


 Subroutine INISYM returns: Found  1 space group operations
 (whereof  1 operations are pure point group operations),
 and found     1 'primitive' translations

 
 
 KPOINTS: Gamma points only                       
  k-points in reciprocal lattice
Space group operators:
 irot       det(A)        alpha          n_x          n_y          n_z        tau_x        tau_y        tau_z
    1     1.000000     0.000000     1.000000     0.000000     0.000000     0.000000     0.000000     0.000000

 ----------------------------------------------------------------------------- 
|                                                                             |
|           W    W    AA    RRRRR   N    N  II  N    N   GGGG   !!!           |
|           W    W   A  A   R    R  NN   N  II  NN   N  G    G  !!!           |
|           W    W  A    A  R    R  N N  N  II  N N  N  G       !!!           |
|           W WW W  AAAAAA  RRRRR   N  N N  II  N  N N  G  GGG   !            |
|           WW  WW  A    A  R   R   N   NN  II  N   NN  G    G                |
|           W    W  A    A  R    R  N    N  II  N    N   GGGG   !!!           |
|                                                                             |
|      Your generating k-point grid is not commensurate to the symmetry       |
|      of the lattice.  This can cause   slow convergence with respect        |
|      to k-points for HF type calculations                                   |
|      suggested SOLUTIONS:                                                   |
|       ) if not already the case, use automatic k-point generation           |
|       ) shift your grid to Gamma (G) (e.g. required for hex or fcc lattice) |
|                                                                             |
 ----------------------------------------------------------------------------- 

 
 Subroutine IBZKPT_HF returns following result:
 ==============================================
 
 Found      1 k-points in 1st BZ
 the following      1 k-points will be used (e.g. in the exchange kernel)
 Following reciprocal coordinates:   # in IRBZ
  0.000000  0.000000  0.000000    1.00000000   1 t-inv F


--------------------------------------------------------------------------------------------------------




 Dimension of arrays:
   k-points           NKPTS =      1   k-points in BZ     NKDIM =      1   number of bands    NBANDS=     12
   number of dos      NEDOS =    301   number of ions     NIONS =      3
   non local maximal  LDIM  =      4   non local SUM 2l+1 LMDIM =      8
   total plane-waves  NPLWV = 777600
   max r-space proj   IRMAX =   3965   max aug-charges    IRDMAX=  82140
   dimension x,y,z NGX =    90 NGY =   90 NGZ =   96
   dimension x,y,z NGXF=   180 NGYF=  180 NGZF=  192
   support grid    NGXF=   360 NGYF=  360 NGZF=  384
   ions per type =               1   2
   NGX,Y,Z   is equivalent  to a cutoff of  10.94, 10.94, 10.81 a.u.
   NGXF,Y,Z  is equivalent  to a cutoff of  21.88, 21.88, 21.62 a.u.

 SYSTEM =  SiO2                                    
 POSCAR =  O  C                                    

 Startparameter for this run:
   NWRITE =      2    write-flag & timer
   PREC   = acc       normal or accurate (medium, high low for compatibility)
   ISTART =      0    job   : 0-new  1-cont  2-samecut
   ICHARG =      2    charge: 1-file 2-atom 10-const
   ISPIN  =      2    spin polarized calculation?
   LNONCOLLINEAR =      F non collinear calculations
   LSORBIT =      F    spin-orbit coupling
   INIWAV =      1    electr: 0-lowe 1-rand  2-diag
   LASPH  =      F    aspherical Exc in radial PAW
   METAGGA=      F    non-selfconsistent MetaGGA calc.

 Electronic Relaxation 1
   ENCUT  =  400.0 eV  29.40 Ry    5.42 a.u.  22.30 22.30 24.08*2*pi/ulx,y,z
   ENINI  =  400.0     initial cutoff
   ENAUG  =  400.0 eV  augmentation charge cutoff
   NELM   =    100;   NELMIN=  2; NELMDL= -5     # of ELM steps 
   EDIFF  = 0.1E-04   stopping-criterion for ELM
   LREAL  =      T    real-space projection
   NLSPLINE    = F    spline interpolate recip. space projectors
   LCOMPAT=      F    compatible to vasp.4.4
   GGA_COMPAT  = T    GGA compatible to vasp.4.4-vasp.4.6
   LMAXPAW     = -100 max onsite density
   LMAXMIX     =    2 max onsite mixed and CHGCAR
   VOSKOWN=      0    Vosko Wilk Nusair interpolation
   ROPT   =   -0.00025  -0.00025
 Ionic relaxation
   EDIFFG = 0.1E-03   stopping-criterion for IOM
   NSW    =      0    number of steps for IOM
   NBLOCK =      1;   KBLOCK =      1    inner block; outer block 
   IBRION =     -1    ionic relax: 0-MD 1-quasi-New 2-CG
   NFREE  =      0    steps in history (QN), initial steepest desc. (CG)
   ISIF   =      0    stress and relaxation
   IWAVPR =     10    prediction:  0-non 1-charg 2-wave 3-comb
   ISYM   =      3    0-nonsym 1-usesym 2-fastsym
   LCORR  =      T    Harris-Foulkes like correction to forces

   POTIM  = 0.5000    time-step for ionic-motion
   TEIN   =    0.0    initial temperature
   TEBEG  =    0.0;   TEEND  =   0.0 temperature during run
   SMASS  =  -3.00    Nose mass-parameter (am)
   estimated Nose-frequenzy (Omega)   =  0.10E-29 period in steps =****** mass=  -0.427E-26a.u.
   SCALEE = 1.0000    scale energy and forces
   NPACO  =    256;   APACO  = 16.0  distance and # of slots for P.C.
   PSTRESS=    0.0 pullay stress

  Mass of Ions in am
   POMASS =  32.07  1.00
  Ionic Valenz
   ZVAL   =   6.00  1.00
  Atomic Wigner-Seitz radii
   RWIGS  =  -1.00 -1.00
  virtual crystal weights 
   VCA    =   1.00  1.00
   NELECT =       8.0000    total number of electrons
   NUPDOWN=      -1.0000    fix difference up-down

 DOS related values:
   EMIN   =  10.00;   EMAX   =-10.00  energy-range for DOS
   EFERMI =   0.00
   ISMEAR =     0;   SIGMA  =   0.05  broadening in eV -4-tet -1-fermi 0-gaus

 Electronic relaxation 2 (details)
   IALGO  =     38    algorithm
   LDIAG  =      T    sub-space diagonalisation (order eigenvalues)
   LSUBROT=      F    optimize rotation matrix (better conditioning)
   TURBO    =      0    0=normal 1=particle mesh
   IRESTART =      0    0=no restart 2=restart with 2 vectors
   NREBOOT  =      0    no. of reboots
   NMIN     =      0    reboot dimension
   EREF     =   0.00    reference energy to select bands
   IMIX   =      1    mixing-type and parameters
     AMIX     =   0.40;   BMIX     =  1.00
     AMIX_MAG =   1.60;   BMIX_MAG =  1.00
     AMIN     =   0.10
     WC   =   100.;   INIMIX=   1;  MIXPRE=   1;  MAXMIX= -45

 Intra band minimization:
   WEIMIN = 0.0000     energy-eigenvalue tresh-hold
   EBREAK =  0.21E-06  absolut break condition
   DEPER  =   0.30     relativ break condition  

   TIME   =   0.40     timestep for ELM

  volume/ion in A,a.u.               =     797.18      5379.64
  Fermi-wavevector in a.u.,A,eV,Ry     =   0.244838  0.462677  0.815611  0.059946
  Thomas-Fermi vector in A             =   1.055099
 
 Write flags
   LWAVE        =      F    write WAVECAR
   LDOWNSAMPLE  =      F    k-point downsampling of WAVECAR
   LCHARG       =      F    write CHGCAR
   LVTOT        =      F    write LOCPOT, total local potential
   LVHAR        =      F    write LOCPOT, Hartree potential only
   LELF         =      F    write electronic localiz. function (ELF)
   LORBIT       =     11    0 simple, 1 ext, 2 COOP (PROOUT), +10 PAW based schemes


 Dipole corrections
   LMONO  =      F    monopole corrections only (constant potential shift)
   LDIPOL =      F    correct potential (dipole corrections)
   IDIPOL =      0    1-x, 2-y, 3-z, 4-all directions 
   EPSILON=  1.0000000 bulk dielectric constant

 Exchange correlation treatment:
   GGA     =    PE    GGA type
   LEXCH   =     8    internal setting for exchange type
   VOSKOWN=      0    Vosko Wilk Nusair interpolation
   EXXOEP  =     0    0=HF, 1=EXX-LHF (local Hartree Fock) 2=EXX OEP
   LHFCALC =     T    Hartree Fock is set to
   LSYMGRAD=     F    symmetrize gradient (conserves proper symmetry)
   PRECFOCK=normal    Normal, Fast or Accurate (Low or Medium for compatibility)
   LRHFCALC=     F    long range Hartree Fock
   LRSCOR  =     F    long range correlation only (use DFT for short range part)
   LTHOMAS =     F    Thomas Fermi screening in HF
   LMODELHF=     F    short range full HF, long range fraction AEXX
   ENCUT4O =  -1.0   cutoff for four orbital integrals eV
   LMAXFOCK=     4    L truncation for augmentation on plane wave grid
   LMAXFOCKAE=  -1    L truncation for all-electron charge restoration on plane wave grid
   NMAXFOCKAE=   1    number of basis functions for all-electron charge restoration
   LFOCKAEDFT=     F  apply the AE augmentation even for DFT
   NKREDX  =     1    reduce k-point grid by
   NKREDY  =     1    reduce k-point grid by
   NKREDZ  =     1    reduce k-point grid by
   SHIFTRED=     F    shift reduced grid of Gamma
   HFKIDENT=     F    idential grid for each k-point
   ODDONLY =     F    use only odd q-grid points
   EVENONLY=     F    use only even q-grid points
   HFALPHA =   -1.0000 decay constant for conv. correction
   MCALPHA =    0.0000 extent of test-charge in conv. correction in multipole expansion
   AEXX    =    0.2500 exact exchange contribution
   HFSCREEN=    0.2000 screening length (either q_TF or 0.3 A-1)
   HFSCREENC=   0.2000 screening length for correlation (either q_TF or 0.3 A-1)
   HFRCUT  =    0.0000 spherical cutoff for potential kernel
   ALDAX   =    0.7500 LDA exchange part
   AGGAX   =    0.7500 GGA exchange part
   ALDAC   =    1.0000 LDA correlation
   AGGAC   =    1.0000 GGA correlation
   ENCUTFOCK=  -1.0 apply spherical cutoff to Coloumb kernel
   NBANDSGWLOW=     1    first orbital included in HF term
   NBLOCK_FOCK=    64    blocking factor in FOCK_ACC
 Linear response parameters
   LEPSILON=     F    determine dielectric tensor
   LRPA    =     F    only Hartree local field effects (RPA)
   LNABLA  =     F    use nabla operator in PAW spheres
   LVEL    =     F    velocity operator in full k-point grid
   LINTERFAST=   F  fast interpolation
   KINTER  =     0    interpolate to denser k-point grid
   CSHIFT  =0.1000    complex shift for real part using Kramers Kronig
   OMEGAMAX=  -1.0    maximum frequency
   DEG_THRESHOLD= 0.2000000E-02 threshold for treating states as degnerate
   RTIME   =   -0.100 relaxation time in fs
  (WPLASMAI=    0.000 imaginary part of plasma frequency in eV, 0.658/RTIME)
   DFIELD  = 0.0000000 0.0000000 0.0000000 field for delta impulse in time
 
 Orbital magnetization related:
   ORBITALMAG=     F  switch on orbital magnetization
   LCHIMAG   =     F  perturbation theory with respect to B field
   DQ        =  0.001000  dq finite difference perturbation B field
   LLRAUG    =     F  two centre corrections for induced B field



--------------------------------------------------------------------------------------------------------


 Static calculation
 charge density and potential will be updated during run
 spin polarized calculation
 Variant of blocked Davidson
 Davidson routine will perform the subspace rotation
 perform sub-space diagonalisation
    after iterative eigenvector-optimisation
 Kerker-like  mixing scheme
 using additional bands            8
 real space projection scheme for non local part
 use partial core corrections
 calculate Harris-corrections to forces 
   (improved forces if not selfconsistent)
 use gradient corrections 
 use of overlap-Matrix (Vanderbilt PP)
 Gauss-broadening in eV      SIGMA  =   0.05


--------------------------------------------------------------------------------------------------------


  energy-cutoff  :      400.00
  volume of cell :     2391.54
      direct lattice vectors                 reciprocal lattice vectors
    13.675000191  0.000000000  0.000000000     0.073126142  0.042219398  0.000000000
    -6.837500095 11.842897562  0.000000000     0.000000000  0.084438795  0.000000000
     0.000000000  0.000000000 14.767000198     0.000000000  0.000000000  0.067718561

  length of vectors
    13.675000191 13.675000191 14.767000198     0.084438795  0.084438795  0.067718561


 
 k-points in units of 2pi/SCALE and weight: Gamma points only                       
   0.00000000  0.00000000  0.00000000       1.000
 
 k-points in reciprocal lattice and weights: Gamma points only                       
   0.00000000  0.00000000  0.00000000       1.000
 
 position of ions in fractional coordinates (direct lattice) 
   0.75651679  0.41247285  0.70881264
   0.86787742  0.46646745  0.68955229
   0.73020336  0.41973175  0.62194195
 
 position of ions in cartesian coordinates  (Angst):
   7.52508409  4.88487374 10.46703641
   8.67875263  5.52432623 10.18261885
   7.11561523  4.97084008  9.18421691
 


--------------------------------------------------------------------------------------------------------


 k-point  1 :   0.0000 0.0000 0.0000  plane waves:   43405

 maximum and minimum number of plane-waves per node :     10852    10850

 maximum number of plane-waves:     43405
 maximum index in each direction: 
   IXMAX=   22   IYMAX=   22   IZMAX=   24
   IXMIN=  -22   IYMIN=  -22   IZMIN=  -24


 real space projection operators:
  total allocation   :        485.35 KBytes
  max/ min on nodes  :        121.99        120.48


 parallel 3D FFT for wavefunctions:
    minimum data exchange during FFTs selected (reduces bandwidth)
 parallel 3D FFT for charge:
    minimum data exchange during FFTs selected (reduces bandwidth)


 FFT grid for exact exchange (Hartree Fock) 
  NGX = 70; NGY = 70; NGZ = 80

 
 Radii for the augmentation spheres in the non-local exchange
 for species   1 augmentation radius   1.034 (default was   0.970)
       energy cutoff for augmentation   1600.0
 for species   2 augmentation radius   0.588 (default was   0.520)
       energy cutoff for augmentation   1600.0

 real space projection operators:
  total allocation   :         72.63 KBytes
  max/ min on nodes  :         18.84         17.02

 Maximum index for augmentation-charges in exchange          191
  SETUP_FOCK is finished

 total amount of memory used by VASP MPI-rank0   150727. kBytes
=======================================================================

   base      :      30000. kBytes
   nonlr-proj:        409. kBytes
   fftplans  :      69849. kBytes
   grid      :      49417. kBytes
   one-center:          6. kBytes
   HF        :          4. kBytes
   wavefun   :       1042. kBytes
 
     INWAV:  cpu time    0.0000: real time    0.0002
 initial charge density was supplied:
 charge density of overlapping atoms calculated
 number of electron       8.0000000 magnetization       3.0000000
 keeping initial charge density in first step


--------------------------------------------------------------------------------------------------------


 Maximum index for non-local projection operator          959
 Maximum index for augmentation-charges         4874 (set IRDMAX)


--------------------------------------------------------------------------------------------------------


 First call to EWALD:  gamma=   0.133
 Maximum number of real-space cells 3x 3x 3
 Maximum number of reciprocal cells 3x 3x 3

    FEWALD:  cpu time    0.0013: real time    0.0013


--------------------------------------- Iteration      1(   1)  ---------------------------------------


    POTLOK:  cpu time    1.4260: real time    1.4620
    SETDIJ:  cpu time    0.3546: real time    0.3554
     EDDAV:  cpu time    0.3301: real time    0.3310
       DOS:  cpu time    0.0002: real time    0.0002
    --------------------------------------------
      LOOP:  cpu time    2.1108: real time    2.1486

 eigenvalue-minimisations  :    64
 total energy-change (2. order) : 0.4761805E+02  (-0.1289177E+03)
 number of electron       8.0000000 magnetization       3.0000000
 augmentation part        8.0000000 magnetization       3.0000000

 Free energy of the ion-electron system (eV)
  ---------------------------------------------------
  alpha Z        PSCENC =         0.10045428
  Ewald energy   TEWEN  =        37.98610620
  -Hartree energ DENC   =      -267.75938200
  -exchange      EXHF   =         0.00000000
  -V(xc)+E(xc)   XCENC  =        13.01671746
  PAW double counting   =       103.21832068     -100.54101608
  entropy T*S    EENTRO =        -0.00000000
  eigenvalues    EBANDS =       -36.36375908
  atomic energy  EATOM  =       297.96060442
  Solvation  Ediel_sol  =         0.00000000
  ---------------------------------------------------
  free energy    TOTEN  =        47.61804588 eV

  energy without entropy =       47.61804588  energy(sigma->0) =       47.61804588
  exchange ACFDT corr.  =         0.00000000  see jH, gK, PRB 81, 115126


--------------------------------------------------------------------------------------------------------




--------------------------------------- Iteration      1(   2)  ---------------------------------------


     EDDAV:  cpu time    0.3581: real time    0.3779
       DOS:  cpu time    0.0001: real time    0.0001
    --------------------------------------------
      LOOP:  cpu time    0.3582: real time    0.3780

 eigenvalue-minimisations  :    72
 total energy-change (2. order) :-0.3684120E+02  (-0.3645102E+02)
 number of electron       8.0000000 magnetization       3.0000000
 augmentation part        8.0000000 magnetization       3.0000000

 Free energy of the ion-electron system (eV)
  ---------------------------------------------------
  alpha Z        PSCENC =         0.10045428
  Ewald energy   TEWEN  =        37.98610620
  -Hartree energ DENC   =      -267.75938200
  -exchange      EXHF   =         0.00000000
  -V(xc)+E(xc)   XCENC  =        13.01671746
  PAW double counting   =       103.21832068     -100.54101608
  entropy T*S    EENTRO =        -0.00000000
  eigenvalues    EBANDS =       -73.20496354
  atomic energy  EATOM  =       297.96060442
  Solvation  Ediel_sol  =         0.00000000
  ---------------------------------------------------
  free energy    TOTEN  =        10.77684141 eV

  energy without entropy =       10.77684141  energy(sigma->0) =       10.77684141
  exchange ACFDT corr.  =         0.00000000  see jH, gK, PRB 81, 115126


--------------------------------------------------------------------------------------------------------




--------------------------------------- Iteration      1(   3)  ---------------------------------------


     EDDAV:  cpu time    0.3533: real time    0.3543
       DOS:  cpu time    0.0002: real time    0.0002
    --------------------------------------------
      LOOP:  cpu time    0.3535: real time    0.3545

 eigenvalue-minimisations  :    72
 total energy-change (2. order) :-0.8172371E+01  (-0.8164308E+01)
 number of electron       8.0000000 magnetization       3.0000000
 augmentation part        8.0000000 magnetization       3.0000000

 Free energy of the ion-electron system (eV)
  ---------------------------------------------------
  alpha Z        PSCENC =         0.10045428
  Ewald energy   TEWEN  =        37.98610620
  -Hartree energ DENC   =      -267.75938200
  -exchange      EXHF   =         0.00000000
  -V(xc)+E(xc)   XCENC  =        13.01671746
  PAW double counting   =       103.21832068     -100.54101608
  entropy T*S    EENTRO =        -0.00000000
  eigenvalues    EBANDS =       -81.37733418
  atomic energy  EATOM  =       297.96060442
  Solvation  Ediel_sol  =         0.00000000
  ---------------------------------------------------
  free energy    TOTEN  =         2.60447078 eV

  energy without entropy =        2.60447078  energy(sigma->0) =        2.60447078
  exchange ACFDT corr.  =         0.00000000  see jH, gK, PRB 81, 115126


--------------------------------------------------------------------------------------------------------




--------------------------------------- Iteration      1(   4)  ---------------------------------------


     EDDAV:  cpu time    0.3229: real time    0.3239
       DOS:  cpu time    0.0001: real time    0.0001
    --------------------------------------------
      LOOP:  cpu time    0.3231: real time    0.3240

 eigenvalue-minimisations  :    64
 total energy-change (2. order) :-0.1835985E+00  (-0.1835552E+00)
 number of electron       8.0000000 magnetization       3.0000000
 augmentation part        8.0000000 magnetization       3.0000000

 Free energy of the ion-electron system (eV)
  ---------------------------------------------------
  alpha Z        PSCENC =         0.10045428
  Ewald energy   TEWEN  =        37.98610620
  -Hartree energ DENC   =      -267.75938200
  -exchange      EXHF   =         0.00000000
  -V(xc)+E(xc)   XCENC  =        13.01671746
  PAW double counting   =       103.21832068     -100.54101608
  entropy T*S    EENTRO =        -0.00000000
  eigenvalues    EBANDS =       -81.56093273
  atomic energy  EATOM  =       297.96060442
  Solvation  Ediel_sol  =         0.00000000
  ---------------------------------------------------
  free energy    TOTEN  =         2.42087223 eV

  energy without entropy =        2.42087223  energy(sigma->0) =        2.42087223
  exchange ACFDT corr.  =         0.00000000  see jH, gK, PRB 81, 115126


--------------------------------------------------------------------------------------------------------




--------------------------------------- Iteration      1(   5)  ---------------------------------------


     EDDAV:  cpu time    2.0868: real time    2.0920
       DOS:  cpu time    0.0001: real time    0.0001
    CHARGE:  cpu time    0.3181: real time    0.3188
    MIXING:  cpu time    0.0064: real time    0.0064
    --------------------------------------------
      LOOP:  cpu time    2.4114: real time    2.4173

 eigenvalue-minimisations  :    88
 total energy-change (2. order) :-0.1495942E+02  (-0.3499171E+00)
 number of electron       8.0000000 magnetization      -1.8000000
 augmentation part       -0.8231014 magnetization      -1.7687381

 Free energy of the ion-electron system (eV)
  ---------------------------------------------------
  alpha Z        PSCENC =         0.10045428
  Ewald energy   TEWEN  =        37.98610620
  -Hartree energ DENC   =      -267.75938200
  -exchange      EXHF   =        14.55596918
  -V(xc)+E(xc)   XCENC  =        13.01671746
  PAW double counting   =       103.21832068     -100.54101608
  entropy T*S    EENTRO =        -0.00000000
  eigenvalues    EBANDS =      -111.07632550
  atomic energy  EATOM  =       297.96060442
  Solvation  Ediel_sol  =         0.00000000
  ---------------------------------------------------
  free energy    TOTEN  =       -12.53855137 eV

  energy without entropy =      -12.53855137  energy(sigma->0) =      -12.53855137
  exchange ACFDT corr.  =        -0.00000000  see jH, gK, PRB 81, 115126


--------------------------------------------------------------------------------------------------------




--------------------------------------- Iteration      1(   6)  ---------------------------------------


    POTLOK:  cpu time    1.1407: real time    1.1437
    SETDIJ:  cpu time    0.3532: real time    0.3540
     EDDAV:  cpu time    1.5323: real time    1.5360
       DOS:  cpu time    0.0001: real time    0.0001
    CHARGE:  cpu time    0.3189: real time    0.3196
    MIXING:  cpu time    0.0065: real time    0.0066
    --------------------------------------------
      LOOP:  cpu time    3.3518: real time    3.3601

 eigenvalue-minimisations  :    56
 total energy-change (2. order) : 0.5154503E+01  (-0.1289696E+01)
 number of electron       8.0000000 magnetization       1.0800000
 augmentation part       -0.8036074 magnetization       1.1117741

 Free energy of the ion-electron system (eV)
  ---------------------------------------------------
  alpha Z        PSCENC =         0.10045428
  Ewald energy   TEWEN  =        37.98610620
  -Hartree energ DENC   =      -274.06387449
  -exchange      EXHF   =        15.32896879
  -V(xc)+E(xc)   XCENC  =        18.88098777
  PAW double counting   =       117.58098847     -115.04672682
  entropy T*S    EENTRO =        -0.00000000
  eigenvalues    EBANDS =      -106.11155733
  atomic energy  EATOM  =       297.96060442
  Solvation  Ediel_sol  =         0.00000000
  ---------------------------------------------------
  free energy    TOTEN  =        -7.38404870 eV

  energy without entropy =       -7.38404870  energy(sigma->0) =       -7.38404870
  exchange ACFDT corr.  =        -0.00000000  see jH, gK, PRB 81, 115126


--------------------------------------------------------------------------------------------------------




--------------------------------------- Iteration      1(   7)  ---------------------------------------


    POTLOK:  cpu time    1.1775: real time    1.1809
    SETDIJ:  cpu time    0.3532: real time    0.3540
     EDDAV:  cpu time    1.3230: real time    1.3261
       DOS:  cpu time    0.0001: real time    0.0001
    CHARGE:  cpu time    0.3160: real time    0.3167
    MIXING:  cpu time    0.0070: real time    0.0070
    --------------------------------------------
      LOOP:  cpu time    3.1768: real time    3.1848

 eigenvalue-minimisations  :    48
 total energy-change (2. order) :-0.4370997E+01  (-0.2663170E+00)
 number of electron       8.0000000 magnetization      -0.6480000
 augmentation part       -0.7821614 magnetization      -0.6282576

 Free energy of the ion-electron system (eV)
  ---------------------------------------------------
  alpha Z        PSCENC =         0.10045428
  Ewald energy   TEWEN  =        37.98610620
  -Hartree energ DENC   =      -279.02314948
  -exchange      EXHF   =        15.49651068
  -V(xc)+E(xc)   XCENC  =        15.61928508
  PAW double counting   =       125.54116430     -123.09098834
  entropy T*S    EENTRO =        -0.00000000
  eigenvalues    EBANDS =      -102.34503328
  atomic energy  EATOM  =       297.96060442
  Solvation  Ediel_sol  =         0.00000000
  ---------------------------------------------------
  free energy    TOTEN  =       -11.75504615 eV

  energy without entropy =      -11.75504615  energy(sigma->0) =      -11.75504615
  exchange ACFDT corr.  =        -0.00000000  see jH, gK, PRB 81, 115126


--------------------------------------------------------------------------------------------------------




--------------------------------------- Iteration      1(   8)  ---------------------------------------


    POTLOK:  cpu time    1.1780: real time    1.1872
    SETDIJ:  cpu time    0.3551: real time    0.3559
     EDDAV:  cpu time    1.6199: real time    1.6237
       DOS:  cpu time    0.0001: real time    0.0001
    CHARGE:  cpu time    0.3168: real time    0.3176
    MIXING:  cpu time    0.0066: real time    0.0066
    --------------------------------------------
      LOOP:  cpu time    3.4765: real time    3.4912

 eigenvalue-minimisations  :    64
 total energy-change (2. order) :-0.1351624E+01  (-0.6318637E-01)
 number of electron       8.0000000 magnetization       0.3888000
 augmentation part       -0.7736202 magnetization       0.4009515

 Free energy of the ion-electron system (eV)
  ---------------------------------------------------
  alpha Z        PSCENC =         0.10045428
  Ewald energy   TEWEN  =        37.98610620
  -Hartree energ DENC   =      -281.05119369
  -exchange      EXHF   =        15.18553820
  -V(xc)+E(xc)   XCENC  =        14.62096942
  PAW double counting   =       127.62504713     -125.18770049
  entropy T*S    EENTRO =        -0.00000000
  eigenvalues    EBANDS =      -100.34649538
  atomic energy  EATOM  =       297.96060442
  Solvation  Ediel_sol  =         0.00000000
  ---------------------------------------------------
  free energy    TOTEN  =       -13.10666991 eV

  energy without entropy =      -13.10666991  energy(sigma->0) =      -13.10666991
  exchange ACFDT corr.  =        -0.00000000  see jH, gK, PRB 81, 115126


--------------------------------------------------------------------------------------------------------




--------------------------------------- Iteration      1(   9)  ---------------------------------------


    POTLOK:  cpu time    1.2020: real time    1.2051
    SETDIJ:  cpu time    0.3561: real time    0.3580
     EDDAV:  cpu time    1.4889: real time    1.4925
       DOS:  cpu time    0.0001: real time    0.0001
    CHARGE:  cpu time    0.3221: real time    0.3229
    MIXING:  cpu time    0.0062: real time    0.0063
    --------------------------------------------
      LOOP:  cpu time    3.3756: real time    3.3849

 eigenvalue-minimisations  :    56
 total energy-change (2. order) :-0.3790980E+00  (-0.1305330E-01)
 number of electron       8.0000000 magnetization      -0.2332800
 augmentation part       -0.7754824 magnetization      -0.2263121

 Free energy of the ion-electron system (eV)
  ---------------------------------------------------
  alpha Z        PSCENC =         0.10045428
  Ewald energy   TEWEN  =        37.98610620
  -Hartree energ DENC   =      -281.75527376
  -exchange      EXHF   =        15.01853834
  -V(xc)+E(xc)   XCENC  =        14.37774076
  PAW double counting   =       127.66967388     -125.22893591
  entropy T*S    EENTRO =        -0.00000000
  eigenvalues    EBANDS =       -99.61467611
  atomic energy  EATOM  =       297.96060442
  Solvation  Ediel_sol  =         0.00000000
  ---------------------------------------------------
  free energy    TOTEN  =       -13.48576790 eV

  energy without entropy =      -13.48576790  energy(sigma->0) =      -13.48576790
  exchange ACFDT corr.  =        -0.00000000  see jH, gK, PRB 81, 115126


--------------------------------------------------------------------------------------------------------




--------------------------------------- Iteration      1(  10)  ---------------------------------------


    POTLOK:  cpu time    1.2192: real time    1.2223
    SETDIJ:  cpu time    0.3595: real time    0.3604
     EDDAV:  cpu time    1.3718: real time    1.3754
       DOS:  cpu time    0.0001: real time    0.0001
    CHARGE:  cpu time    0.3304: real time    0.3312
    MIXING:  cpu time    0.0078: real time    0.0079
    --------------------------------------------
      LOOP:  cpu time    3.2889: real time    3.2973

 eigenvalue-minimisations  :    48
 total energy-change (2. order) :-0.4871415E+00  (-0.1037231E-01)
 number of electron       8.0000000 magnetization       0.1399680
 augmentation part       -0.7770757 magnetization       0.1442885

 Free energy of the ion-electron system (eV)
  ---------------------------------------------------
  alpha Z        PSCENC =         0.10045428
  Ewald energy   TEWEN  =        37.98610620
  -Hartree energ DENC   =      -282.13686139
  -exchange      EXHF   =        14.96177230
  -V(xc)+E(xc)   XCENC  =        13.99141751
  PAW double counting   =       127.61298898     -125.16872738
  entropy T*S    EENTRO =        -0.00000000
  eigenvalues    EBANDS =       -99.28066431
  atomic energy  EATOM  =       297.96060442
  Solvation  Ediel_sol  =         0.00000000
  ---------------------------------------------------
  free energy    TOTEN  =       -13.97290938 eV

  energy without entropy =      -13.97290938  energy(sigma->0) =      -13.97290938
  exchange ACFDT corr.  =        -0.00000000  see jH, gK, PRB 81, 115126


--------------------------------------------------------------------------------------------------------




--------------------------------------- Iteration      1(  11)  ---------------------------------------


    POTLOK:  cpu time    1.2649: real time    1.2698
    SETDIJ:  cpu time    0.3611: real time    0.3620
     EDDAV:  cpu time    1.3592: real time    1.3624
       DOS:  cpu time    0.0001: real time    0.0001
    CHARGE:  cpu time    0.3274: real time    0.3281
    MIXING:  cpu time    0.0063: real time    0.0064
    --------------------------------------------
      LOOP:  cpu time    3.3190: real time    3.3288

 eigenvalue-minimisations  :    48
 total energy-change (2. order) :-0.8203736E-01  (-0.1772882E-02)
 number of electron       8.0000000 magnetization      -0.0839808
 augmentation part       -0.7782377 magnetization      -0.0811129

 Free energy of the ion-electron system (eV)
  ---------------------------------------------------
  alpha Z        PSCENC =         0.10045428
  Ewald energy   TEWEN  =        37.98610620
  -Hartree energ DENC   =      -282.32384679
  -exchange      EXHF   =        14.92034222
  -V(xc)+E(xc)   XCENC  =        13.94426274
  PAW double counting   =       127.48872884     -125.04220393
  entropy T*S    EENTRO =        -0.00000000
  eigenvalues    EBANDS =       -99.08939472
  atomic energy  EATOM  =       297.96060442
  Solvation  Ediel_sol  =         0.00000000
  ---------------------------------------------------
  free energy    TOTEN  =       -14.05494674 eV

  energy without entropy =      -14.05494674  energy(sigma->0) =      -14.05494674
  exchange ACFDT corr.  =        -0.00000000  see jH, gK, PRB 81, 115126


--------------------------------------------------------------------------------------------------------




--------------------------------------- Iteration      1(  12)  ---------------------------------------


    POTLOK:  cpu time    1.2503: real time    1.2535
    SETDIJ:  cpu time    0.3664: real time    0.3673
     EDDAV:  cpu time    1.5268: real time    1.5304
       DOS:  cpu time    0.0001: real time    0.0001
    CHARGE:  cpu time    0.3326: real time    0.3334
    MIXING:  cpu time    0.0065: real time    0.0065
    --------------------------------------------
      LOOP:  cpu time    3.4827: real time    3.4913

 eigenvalue-minimisations  :    56
 total energy-change (2. order) :-0.3008465E+00  (-0.2198511E-02)
 number of electron       8.0000000 magnetization       0.0503885
 augmentation part       -0.7787568 magnetization       0.0523568

 Free energy of the ion-electron system (eV)
  ---------------------------------------------------
  alpha Z        PSCENC =         0.10045428
  Ewald energy   TEWEN  =        37.98610620
  -Hartree energ DENC   =      -282.44637415
  -exchange      EXHF   =        14.90303251
  -V(xc)+E(xc)   XCENC  =        13.67199916
  PAW double counting   =       127.39185334     -124.94356461
  entropy T*S    EENTRO =        -0.00000000
  eigenvalues    EBANDS =       -98.97990438
  atomic energy  EATOM  =       297.96060442
  Solvation  Ediel_sol  =         0.00000000
  ---------------------------------------------------
  free energy    TOTEN  =       -14.35579325 eV

  energy without entropy =      -14.35579325  energy(sigma->0) =      -14.35579325
  exchange ACFDT corr.  =        -0.00000000  see jH, gK, PRB 81, 115126


--------------------------------------------------------------------------------------------------------




--------------------------------------- Iteration      1(  13)  ---------------------------------------


    POTLOK:  cpu time    1.2674: real time    1.2706
    SETDIJ:  cpu time    0.3679: real time    0.3687
     EDDAV:  cpu time    1.6115: real time    1.6154
       DOS:  cpu time    0.0001: real time    0.0001
    CHARGE:  cpu time    0.3330: real time    0.3338
    MIXING:  cpu time    0.0066: real time    0.0066
    --------------------------------------------
      LOOP:  cpu time    3.5865: real time    3.5953

 eigenvalue-minimisations  :    60
 total energy-change (2. order) :-0.4772587E-01  (-0.3818973E-03)
 number of electron       8.0000000 magnetization      -0.0302331
 augmentation part       -0.7790423 magnetization      -0.0288688

 Free energy of the ion-electron system (eV)
  ---------------------------------------------------
  alpha Z        PSCENC =         0.10045428
  Ewald energy   TEWEN  =        37.98610620
  -Hartree energ DENC   =      -282.51405027
  -exchange      EXHF   =        14.88853757
  -V(xc)+E(xc)   XCENC  =        13.63338300
  PAW double counting   =       127.29087107     -124.84114429
  entropy T*S    EENTRO =        -0.00000000
  eigenvalues    EBANDS =       -98.90828110
  atomic energy  EATOM  =       297.96060442
  Solvation  Ediel_sol  =         0.00000000
  ---------------------------------------------------
  free energy    TOTEN  =       -14.40351912 eV

  energy without entropy =      -14.40351912  energy(sigma->0) =      -14.40351912
  exchange ACFDT corr.  =        -0.00000000  see jH, gK, PRB 81, 115126


--------------------------------------------------------------------------------------------------------




--------------------------------------- Iteration      1(  14)  ---------------------------------------


    POTLOK:  cpu time    1.2746: real time    1.2778
    SETDIJ:  cpu time    0.3650: real time    0.3659
     EDDAV:  cpu time    1.6900: real time    1.6940
       DOS:  cpu time    0.0001: real time    0.0001
    CHARGE:  cpu time    0.3307: real time    0.3315
    MIXING:  cpu time    0.0068: real time    0.0069
    --------------------------------------------
      LOOP:  cpu time    3.6673: real time    3.6762

 eigenvalue-minimisations  :    64
 total energy-change (2. order) :-0.1260180E+00  (-0.6254855E-03)
 number of electron       8.0000000 magnetization       0.0181399
 augmentation part       -0.7791911 magnetization       0.0190449

 Free energy of the ion-electron system (eV)
  ---------------------------------------------------
  alpha Z        PSCENC =         0.10045428
  Ewald energy   TEWEN  =        37.98610620
  -Hartree energ DENC   =      -282.56005400
  -exchange      EXHF   =        14.88132755
  -V(xc)+E(xc)   XCENC  =        13.51575635
  PAW double counting   =       127.19827956     -124.74722344
  entropy T*S    EENTRO =        -0.00000000
  eigenvalues    EBANDS =       -98.86478808
  atomic energy  EATOM  =       297.96060442
  Solvation  Ediel_sol  =         0.00000000
  ---------------------------------------------------
  free energy    TOTEN  =       -14.52953717 eV

  energy without entropy =      -14.52953717  energy(sigma->0) =      -14.52953717
  exchange ACFDT corr.  =        -0.00000000  see jH, gK, PRB 81, 115126


--------------------------------------------------------------------------------------------------------




--------------------------------------- Iteration      1(  15)  ---------------------------------------


    POTLOK:  cpu time    1.2829: real time    1.2866
    SETDIJ:  cpu time    0.3700: real time    0.3708
     EDDAV:  cpu time    1.5356: real time    1.5393
       DOS:  cpu time    0.0001: real time    0.0001
    CHARGE:  cpu time    0.3340: real time    0.3348
    MIXING:  cpu time    0.0064: real time    0.0064
    --------------------------------------------
      LOOP:  cpu time    3.5290: real time    3.5381

 eigenvalue-minimisations  :    56
 total energy-change (2. order) :-0.2776846E-01  (-0.9673720E-04)
 number of electron       8.0000000 magnetization      -0.0108839
 augmentation part       -0.7793554 magnetization      -0.0102470

 Free energy of the ion-electron system (eV)
  ---------------------------------------------------
  alpha Z        PSCENC =         0.10045428
  Ewald energy   TEWEN  =        37.98610620
  -Hartree energ DENC   =      -282.58926041
  -exchange      EXHF   =        14.87532116
  -V(xc)+E(xc)   XCENC  =        13.49039363
  PAW double counting   =       127.11967737     -124.66756741
  entropy T*S    EENTRO =        -0.00000000
  eigenvalues    EBANDS =       -98.83303486
  atomic energy  EATOM  =       297.96060442
  Solvation  Ediel_sol  =         0.00000000
  ---------------------------------------------------
  free energy    TOTEN  =       -14.55730563 eV

  energy without entropy =      -14.55730563  energy(sigma->0) =      -14.55730563
  exchange ACFDT corr.  =        -0.00000000  see jH, gK, PRB 81, 115126


--------------------------------------------------------------------------------------------------------




--------------------------------------- Iteration      1(  16)  ---------------------------------------


    POTLOK:  cpu time    1.2962: real time    1.2995
    SETDIJ:  cpu time    0.3679: real time    0.3688
     EDDAV:  cpu time    1.5304: real time    1.5340
       DOS:  cpu time    0.0001: real time    0.0001
    CHARGE:  cpu time    0.3321: real time    0.3329
    MIXING:  cpu time    0.0064: real time    0.0064
    --------------------------------------------
      LOOP:  cpu time    3.5332: real time    3.5418

 eigenvalue-minimisations  :    56
 total energy-change (2. order) :-0.4288661E-01  (-0.1353060E-03)
 number of electron       8.0000000 magnetization       0.0065303
 augmentation part       -0.7794529 magnetization       0.0069912

 Free energy of the ion-electron system (eV)
  ---------------------------------------------------
  alpha Z        PSCENC =         0.10045428
  Ewald energy   TEWEN  =        37.98610620
  -Hartree energ DENC   =      -282.62000705
  -exchange      EXHF   =        14.87347813
  -V(xc)+E(xc)   XCENC  =        13.45016648
  PAW double counting   =       127.06986654     -124.61703243
  entropy T*S    EENTRO =        -0.00000000
  eigenvalues    EBANDS =       -98.80382881
  atomic energy  EATOM  =       297.96060442
  Solvation  Ediel_sol  =         0.00000000
  ---------------------------------------------------
  free energy    TOTEN  =       -14.60019224 eV

  energy without entropy =      -14.60019224  energy(sigma->0) =      -14.60019224
  exchange ACFDT corr.  =        -0.00000000  see jH, gK, PRB 81, 115126


--------------------------------------------------------------------------------------------------------




--------------------------------------- Iteration      1(  17)  ---------------------------------------


    POTLOK:  cpu time    1.2830: real time    1.3026
    SETDIJ:  cpu time    0.3628: real time    0.3637
     EDDAV:  cpu time    1.7461: real time    1.7503
       DOS:  cpu time    0.0001: real time    0.0001
    CHARGE:  cpu time    0.3288: real time    0.3297
    MIXING:  cpu time    0.0068: real time    0.0068
    --------------------------------------------
      LOOP:  cpu time    3.7276: real time    3.7531

 eigenvalue-minimisations  :    68
 total energy-change (2. order) :-0.1877653E-01  (-0.2968513E-04)
 number of electron       8.0000000 magnetization      -0.0039182
 augmentation part       -0.7794959 magnetization      -0.0035878

 Free energy of the ion-electron system (eV)
  ---------------------------------------------------
  alpha Z        PSCENC =         0.10045428
  Ewald energy   TEWEN  =        37.98610620
  -Hartree energ DENC   =      -282.64872529
  -exchange      EXHF   =        14.87172458
  -V(xc)+E(xc)   XCENC  =        13.43244628
  PAW double counting   =       127.03689240     -124.58359438
  entropy T*S    EENTRO =        -0.00000000
  eigenvalues    EBANDS =       -98.77487725
  atomic energy  EATOM  =       297.96060442
  Solvation  Ediel_sol  =         0.00000000
  ---------------------------------------------------
  free energy    TOTEN  =       -14.61896877 eV

  energy without entropy =      -14.61896877  energy(sigma->0) =      -14.61896877
  exchange ACFDT corr.  =        -0.00000000  see jH, gK, PRB 81, 115126


--------------------------------------------------------------------------------------------------------




--------------------------------------- Iteration      1(  18)  ---------------------------------------


    POTLOK:  cpu time    1.2828: real time    1.2869
    SETDIJ:  cpu time    0.3570: real time    0.3578
     EDDAV:  cpu time    1.5245: real time    1.5281
       DOS:  cpu time    0.0001: real time    0.0001
    CHARGE:  cpu time    0.3138: real time    0.3145
    MIXING:  cpu time    0.0072: real time    0.0072
    --------------------------------------------
      LOOP:  cpu time    3.4853: real time    3.4947

 eigenvalue-minimisations  :    56
 total energy-change (2. order) :-0.1708623E-01  (-0.3126147E-04)
 number of electron       8.0000000 magnetization       0.0023509
 augmentation part       -0.7795383 magnetization       0.0025932

 Free energy of the ion-electron system (eV)
  ---------------------------------------------------
  alpha Z        PSCENC =         0.10045428
  Ewald energy   TEWEN  =        37.98610620
  -Hartree energ DENC   =      -282.67427574
  -exchange      EXHF   =        14.87032721
  -V(xc)+E(xc)   XCENC  =        13.41637393
  PAW double counting   =       127.01017033     -124.55648950
  entropy T*S    EENTRO =        -0.00000000
  eigenvalues    EBANDS =       -98.74932613
  atomic energy  EATOM  =       297.96060442
  Solvation  Ediel_sol  =         0.00000000
  ---------------------------------------------------
  free energy    TOTEN  =       -14.63605500 eV

  energy without entropy =      -14.63605500  energy(sigma->0) =      -14.63605500
  exchange ACFDT corr.  =        -0.00000000  see jH, gK, PRB 81, 115126


--------------------------------------------------------------------------------------------------------




--------------------------------------- Iteration      1(  19)  ---------------------------------------


    POTLOK:  cpu time    1.2647: real time    1.2679
    SETDIJ:  cpu time    0.3503: real time    0.3512
     EDDAV:  cpu time    1.5453: real time    1.5489
       DOS:  cpu time    0.0001: real time    0.0001
    CHARGE:  cpu time    0.3138: real time    0.3146
    MIXING:  cpu time    0.0070: real time    0.0070
    --------------------------------------------
      LOOP:  cpu time    3.4812: real time    3.4897

 eigenvalue-minimisations  :    60
 total energy-change (2. order) :-0.1145648E-01  (-0.1041324E-04)
 number of electron       8.0000000 magnetization      -0.0014106
 augmentation part       -0.7795537 magnetization      -0.0012371

 Free energy of the ion-electron system (eV)
  ---------------------------------------------------
  alpha Z        PSCENC =         0.10045428
  Ewald energy   TEWEN  =        37.98610620
  -Hartree energ DENC   =      -282.69877153
  -exchange      EXHF   =        14.86951360
  -V(xc)+E(xc)   XCENC  =        13.40554528
  PAW double counting   =       126.99236635     -124.53843382
  entropy T*S    EENTRO =        -0.00000000
  eigenvalues    EBANDS =       -98.72489626
  atomic energy  EATOM  =       297.96060442
  Solvation  Ediel_sol  =         0.00000000
  ---------------------------------------------------
  free energy    TOTEN  =       -14.64751148 eV

  energy without entropy =      -14.64751148  energy(sigma->0) =      -14.64751148
  exchange ACFDT corr.  =        -0.00000000  see jH, gK, PRB 81, 115126


--------------------------------------------------------------------------------------------------------




--------------------------------------- Iteration      1(  20)  ---------------------------------------


    POTLOK:  cpu time    1.2704: real time    1.2747
    SETDIJ:  cpu time    0.3513: real time    0.3521
     EDDAV:  cpu time    1.4649: real time    1.4683
       DOS:  cpu time    0.0001: real time    0.0001
    CHARGE:  cpu time    0.3137: real time    0.3145
    MIXING:  cpu time    0.0066: real time    0.0066
    --------------------------------------------
      LOOP:  cpu time    3.4070: real time    3.4164

 eigenvalue-minimisations  :    56
 total energy-change (2. order) :-0.8266843E-02  (-0.8339329E-05)
 number of electron       8.0000000 magnetization       0.0008463
 augmentation part       -0.7795759 magnetization       0.0009752

 Free energy of the ion-electron system (eV)
  ---------------------------------------------------
  alpha Z        PSCENC =         0.10045428
  Ewald energy   TEWEN  =        37.98610620
  -Hartree energ DENC   =      -282.72069051
  -exchange      EXHF   =        14.86869144
  -V(xc)+E(xc)   XCENC  =        13.39785454
  PAW double counting   =       126.97725332     -124.52310393
  entropy T*S    EENTRO =        -0.00000000
  eigenvalues    EBANDS =       -98.70294808
  atomic energy  EATOM  =       297.96060442
  Solvation  Ediel_sol  =         0.00000000
  ---------------------------------------------------
  free energy    TOTEN  =       -14.65577833 eV

  energy without entropy =      -14.65577833  energy(sigma->0) =      -14.65577833
  exchange ACFDT corr.  =         0.00000000  see jH, gK, PRB 81, 115126


--------------------------------------------------------------------------------------------------------




--------------------------------------- Iteration      1(  21)  ---------------------------------------


    POTLOK:  cpu time    1.2760: real time    1.2792
    SETDIJ:  cpu time    0.3506: real time    0.3515
     EDDAV:  cpu time    1.8343: real time    1.8387
       DOS:  cpu time    0.0001: real time    0.0001
    CHARGE:  cpu time    0.3121: real time    0.3128
    MIXING:  cpu time    0.0076: real time    0.0076
    --------------------------------------------
      LOOP:  cpu time    3.7807: real time    3.7899

 eigenvalue-minimisations  :    76
 total energy-change (2. order) :-0.6542697E-02  (-0.4275597E-05)
 number of electron       8.0000000 magnetization      -0.0005078
 augmentation part       -0.7795823 magnetization      -0.0004150

 Free energy of the ion-electron system (eV)
  ---------------------------------------------------
  alpha Z        PSCENC =         0.10045428
  Ewald energy   TEWEN  =        37.98610620
  -Hartree energ DENC   =      -282.74152813
  -exchange      EXHF   =        14.86822393
  -V(xc)+E(xc)   XCENC  =        13.39178357
  PAW double counting   =       126.96692225     -124.51262699
  entropy T*S    EENTRO =        -0.00000000
  eigenvalues    EBANDS =       -98.68226054
  atomic energy  EATOM  =       297.96060442
  Solvation  Ediel_sol  =         0.00000000
  ---------------------------------------------------
  free energy    TOTEN  =       -14.66232102 eV

  energy without entropy =      -14.66232102  energy(sigma->0) =      -14.66232102
  exchange ACFDT corr.  =        -0.00000000  see jH, gK, PRB 81, 115126


--------------------------------------------------------------------------------------------------------




--------------------------------------- Iteration      1(  22)  ---------------------------------------


    POTLOK:  cpu time    1.2855: real time    1.2887
    SETDIJ:  cpu time    0.3505: real time    0.3513
     EDDAV:  cpu time    1.3122: real time    1.3154
       DOS:  cpu time    0.0001: real time    0.0001
    CHARGE:  cpu time    0.3135: real time    0.3142
    MIXING:  cpu time    0.0066: real time    0.0066
    --------------------------------------------
      LOOP:  cpu time    3.2683: real time    3.2763

 eigenvalue-minimisations  :    48
 total energy-change (2. order) :-0.4044635E-02  (-0.3170435E-05)
 number of electron       8.0000000 magnetization       0.0003047
 augmentation part       -0.7795933 magnetization       0.0003752

 Free energy of the ion-electron system (eV)
  ---------------------------------------------------
  alpha Z        PSCENC =         0.10045428
  Ewald energy   TEWEN  =        37.98610620
  -Hartree energ DENC   =      -282.76000165
  -exchange      EXHF   =        14.86765514
  -V(xc)+E(xc)   XCENC  =        13.38815457
  PAW double counting   =       126.95739897     -124.50296311
  entropy T*S    EENTRO =        -0.00000000
  eigenvalues    EBANDS =       -98.66377448
  atomic energy  EATOM  =       297.96060442
  Solvation  Ediel_sol  =         0.00000000
  ---------------------------------------------------
  free energy    TOTEN  =       -14.66636566 eV

  energy without entropy =      -14.66636566  energy(sigma->0) =      -14.66636566
  exchange ACFDT corr.  =        -0.00000000  see jH, gK, PRB 81, 115126


--------------------------------------------------------------------------------------------------------




--------------------------------------- Iteration      1(  23)  ---------------------------------------


    POTLOK:  cpu time    1.2983: real time    1.3016
    SETDIJ:  cpu time    0.3506: real time    0.3514
     EDDAV:  cpu time    1.5437: real time    1.5474
       DOS:  cpu time    0.0001: real time    0.0001
    CHARGE:  cpu time    0.3163: real time    0.3171
    MIXING:  cpu time    0.0068: real time    0.0068
    --------------------------------------------
      LOOP:  cpu time    3.5157: real time    3.5244

 eigenvalue-minimisations  :    60
 total energy-change (2. order) :-0.2551377E-02  (-0.2017068E-05)
 number of electron       8.0000000 magnetization      -0.0001828
 augmentation part       -0.7795975 magnetization      -0.0001295

 Free energy of the ion-electron system (eV)
  ---------------------------------------------------
  alpha Z        PSCENC =         0.10045428
  Ewald energy   TEWEN  =        37.98610620
  -Hartree energ DENC   =      -282.77723704
  -exchange      EXHF   =        14.86731864
  -V(xc)+E(xc)   XCENC  =        13.38597217
  PAW double counting   =       126.95056528     -124.49602762
  entropy T*S    EENTRO =        -0.00000000
  eigenvalues    EBANDS =       -98.64667337
  atomic energy  EATOM  =       297.96060442
  Solvation  Ediel_sol  =         0.00000000
  ---------------------------------------------------
  free energy    TOTEN  =       -14.66891704 eV

  energy without entropy =      -14.66891704  energy(sigma->0) =      -14.66891704
  exchange ACFDT corr.  =        -0.00000000  see jH, gK, PRB 81, 115126


--------------------------------------------------------------------------------------------------------




--------------------------------------- Iteration      1(  24)  ---------------------------------------


    POTLOK:  cpu time    1.3348: real time    1.3383
    SETDIJ:  cpu time    0.3509: real time    0.3517
     EDDAV:  cpu time    1.3236: real time    1.3267
       DOS:  cpu time    0.0001: real time    0.0001
    CHARGE:  cpu time    0.3156: real time    0.3163
    MIXING:  cpu time    0.0063: real time    0.0063
    --------------------------------------------
      LOOP:  cpu time    3.3312: real time    3.3395

 eigenvalue-minimisations  :    48
 total energy-change (2. order) :-0.1358925E-02  (-0.1437937E-05)
 number of electron       8.0000000 magnetization       0.0001097
 augmentation part       -0.7796009 magnetization       0.0001492

 Free energy of the ion-electron system (eV)
  ---------------------------------------------------
  alpha Z        PSCENC =         0.10045428
  Ewald energy   TEWEN  =        37.98610620
  -Hartree energ DENC   =      -282.79269842
  -exchange      EXHF   =        14.86694521
  -V(xc)+E(xc)   XCENC  =        13.38493968
  PAW double counting   =       126.94453611     -124.48991007
  entropy T*S    EENTRO =        -0.00000000
  eigenvalues    EBANDS =       -98.63125337
  atomic energy  EATOM  =       297.96060442
  Solvation  Ediel_sol  =         0.00000000
  ---------------------------------------------------
  free energy    TOTEN  =       -14.67027596 eV

  energy without entropy =      -14.67027596  energy(sigma->0) =      -14.67027596
  exchange ACFDT corr.  =        -0.00000000  see jH, gK, PRB 81, 115126


--------------------------------------------------------------------------------------------------------




--------------------------------------- Iteration      1(  25)  ---------------------------------------


    POTLOK:  cpu time    1.3253: real time    1.3287
    SETDIJ:  cpu time    0.3514: real time    0.3522
     EDDAV:  cpu time    1.4794: real time    1.4830
       DOS:  cpu time    0.0001: real time    0.0001
    CHARGE:  cpu time    0.3148: real time    0.3155
    MIXING:  cpu time    0.0072: real time    0.0072
    --------------------------------------------
      LOOP:  cpu time    3.4782: real time    3.4868

 eigenvalue-minimisations  :    56
 total energy-change (2. order) :-0.8247881E-03  (-0.9774654E-06)
 number of electron       8.0000000 magnetization      -0.0000658
 augmentation part       -0.7796033 magnetization      -0.0000364

 Free energy of the ion-electron system (eV)
  ---------------------------------------------------
  alpha Z        PSCENC =         0.10045428
  Ewald energy   TEWEN  =        37.98610620
  -Hartree energ DENC   =      -282.80660022
  -exchange      EXHF   =        14.86662725
  -V(xc)+E(xc)   XCENC  =        13.38439527
  PAW double counting   =       126.93926067     -124.48456051
  entropy T*S    EENTRO =        -0.00000000
  eigenvalues    EBANDS =       -98.61738810
  atomic energy  EATOM  =       297.96060442
  Solvation  Ediel_sol  =         0.00000000
  ---------------------------------------------------
  free energy    TOTEN  =       -14.67110075 eV

  energy without entropy =      -14.67110075  energy(sigma->0) =      -14.67110075
  exchange ACFDT corr.  =        -0.00000000  see jH, gK, PRB 81, 115126


--------------------------------------------------------------------------------------------------------




--------------------------------------- Iteration      1(  26)  ---------------------------------------


    POTLOK:  cpu time    1.3357: real time    1.3443
    SETDIJ:  cpu time    0.3546: real time    0.3554
     EDDAV:  cpu time    1.4759: real time    1.4794
       DOS:  cpu time    0.0001: real time    0.0001
    CHARGE:  cpu time    0.3149: real time    0.3156
    MIXING:  cpu time    0.0075: real time    0.0075
    --------------------------------------------
      LOOP:  cpu time    3.4886: real time    3.5023

 eigenvalue-minimisations  :    56
 total energy-change (2. order) :-0.5520315E-03  (-0.7221880E-06)
 number of electron       8.0000000 magnetization       0.0000395
 augmentation part       -0.7796046 magnetization       0.0000602

 Free energy of the ion-electron system (eV)
  ---------------------------------------------------
  alpha Z        PSCENC =         0.10045428
  Ewald energy   TEWEN  =        37.98610620
  -Hartree energ DENC   =      -282.81908441
  -exchange      EXHF   =        14.86634484
  -V(xc)+E(xc)   XCENC  =        13.38408949
  PAW double counting   =       126.93459850     -124.47983311
  entropy T*S    EENTRO =        -0.00000000
  eigenvalues    EBANDS =       -98.60493298
  atomic energy  EATOM  =       297.96060442
  Solvation  Ediel_sol  =         0.00000000
  ---------------------------------------------------
  free energy    TOTEN  =       -14.67165278 eV

  energy without entropy =      -14.67165278  energy(sigma->0) =      -14.67165278
  exchange ACFDT corr.  =        -0.00000000  see jH, gK, PRB 81, 115126


--------------------------------------------------------------------------------------------------------




--------------------------------------- Iteration      1(  27)  ---------------------------------------


    POTLOK:  cpu time    1.3853: real time    1.3889
    SETDIJ:  cpu time    0.3532: real time    0.3540
     EDDAV:  cpu time    1.4982: real time    1.5017
       DOS:  cpu time    0.0001: real time    0.0001
    CHARGE:  cpu time    0.3175: real time    0.3182
    MIXING:  cpu time    0.0067: real time    0.0067
    --------------------------------------------
      LOOP:  cpu time    3.5610: real time    3.5697

 eigenvalue-minimisations  :    56
 total energy-change (2. order) :-0.4080553E-03  (-0.5135149E-06)
 number of electron       8.0000000 magnetization      -0.0000237
 augmentation part       -0.7796084 magnetization      -0.0000080

 Free energy of the ion-electron system (eV)
  ---------------------------------------------------
  alpha Z        PSCENC =         0.10045428
  Ewald energy   TEWEN  =        37.98610620
  -Hartree energ DENC   =      -282.83019597
  -exchange      EXHF   =        14.86607624
  -V(xc)+E(xc)   XCENC  =        13.38388972
  PAW double counting   =       126.93026060     -124.47543517
  entropy T*S    EENTRO =        -0.00000000
  eigenvalues    EBANDS =       -98.59382114
  atomic energy  EATOM  =       297.96060442
  Solvation  Ediel_sol  =         0.00000000
  ---------------------------------------------------
  free energy    TOTEN  =       -14.67206084 eV

  energy without entropy =      -14.67206084  energy(sigma->0) =      -14.67206084
  exchange ACFDT corr.  =        -0.00000000  see jH, gK, PRB 81, 115126


--------------------------------------------------------------------------------------------------------




--------------------------------------- Iteration      1(  28)  ---------------------------------------


    POTLOK:  cpu time    1.2923: real time    1.2960
    SETDIJ:  cpu time    0.3372: real time    0.3380
     EDDAV:  cpu time    1.5413: real time    1.5450
       DOS:  cpu time    0.0001: real time    0.0001
    CHARGE:  cpu time    0.2979: real time    0.2986
    MIXING:  cpu time    0.0063: real time    0.0063
    --------------------------------------------
      LOOP:  cpu time    3.4751: real time    3.4839

 eigenvalue-minimisations  :    64
 total energy-change (2. order) :-0.3181536E-03  (-0.4109448E-06)
 number of electron       8.0000000 magnetization       0.0000142
 augmentation part       -0.7796096 magnetization       0.0000255

 Free energy of the ion-electron system (eV)
  ---------------------------------------------------
  alpha Z        PSCENC =         0.10045428
  Ewald energy   TEWEN  =        37.98610620
  -Hartree energ DENC   =      -282.84044991
  -exchange      EXHF   =        14.86590209
  -V(xc)+E(xc)   XCENC  =        13.38376592
  PAW double counting   =       126.92689733     -124.47202305
  entropy T*S    EENTRO =        -0.00000000
  eigenvalues    EBANDS =       -98.58363626
  atomic energy  EATOM  =       297.96060442
  Solvation  Ediel_sol  =         0.00000000
  ---------------------------------------------------
  free energy    TOTEN  =       -14.67237899 eV

  energy without entropy =      -14.67237899  energy(sigma->0) =      -14.67237899
  exchange ACFDT corr.  =        -0.00000000  see jH, gK, PRB 81, 115126


--------------------------------------------------------------------------------------------------------




--------------------------------------- Iteration      1(  29)  ---------------------------------------


    POTLOK:  cpu time    1.2819: real time    1.2860
    SETDIJ:  cpu time    0.3394: real time    0.3402
     EDDAV:  cpu time    1.4064: real time    1.4097
       DOS:  cpu time    0.0001: real time    0.0001
    CHARGE:  cpu time    0.3000: real time    0.3007
    MIXING:  cpu time    0.0064: real time    0.0064
    --------------------------------------------
      LOOP:  cpu time    3.3342: real time    3.3432

 eigenvalue-minimisations  :    56
 total energy-change (2. order) :-0.2557622E-03  (-0.2953392E-06)
 number of electron       8.0000000 magnetization      -0.0000085
 augmentation part       -0.7796121 magnetization      -0.0000000

 Free energy of the ion-electron system (eV)
  ---------------------------------------------------
  alpha Z        PSCENC =         0.10045428
  Ewald energy   TEWEN  =        37.98610620
  -Hartree energ DENC   =      -282.84960377
  -exchange      EXHF   =        14.86569856
  -V(xc)+E(xc)   XCENC  =        13.38367616
  PAW double counting   =       126.92371270     -124.46879178
  entropy T*S    EENTRO =        -0.00000000
  eigenvalues    EBANDS =       -98.57449151
  atomic energy  EATOM  =       297.96060442
  Solvation  Ediel_sol  =         0.00000000
  ---------------------------------------------------
  free energy    TOTEN  =       -14.67263475 eV

  energy without entropy =      -14.67263475  energy(sigma->0) =      -14.67263475
  exchange ACFDT corr.  =        -0.00000000  see jH, gK, PRB 81, 115126


--------------------------------------------------------------------------------------------------------




--------------------------------------- Iteration      1(  30)  ---------------------------------------


    POTLOK:  cpu time    1.2780: real time    1.2813
    SETDIJ:  cpu time    0.3393: real time    0.3401
     EDDAV:  cpu time    1.3342: real time    1.3373
       DOS:  cpu time    0.0001: real time    0.0001
    CHARGE:  cpu time    0.3001: real time    0.3008
    MIXING:  cpu time    0.0063: real time    0.0063
    --------------------------------------------
      LOOP:  cpu time    3.2580: real time    3.2660

 eigenvalue-minimisations  :    52
 total energy-change (2. order) :-0.2126866E-03  (-0.2368172E-06)
 number of electron       8.0000000 magnetization       0.0000051
 augmentation part       -0.7796135 magnetization       0.0000118

 Free energy of the ion-electron system (eV)
  ---------------------------------------------------
  alpha Z        PSCENC =         0.10045428
  Ewald energy   TEWEN  =        37.98610620
  -Hartree energ DENC   =      -282.85801821
  -exchange      EXHF   =        14.86555937
  -V(xc)+E(xc)   XCENC  =        13.38361696
  PAW double counting   =       126.92114633     -124.46618871
  entropy T*S    EENTRO =        -0.00000000
  eigenvalues    EBANDS =       -98.56612807
  atomic energy  EATOM  =       297.96060442
  Solvation  Ediel_sol  =         0.00000000
  ---------------------------------------------------
  free energy    TOTEN  =       -14.67284744 eV

  energy without entropy =      -14.67284744  energy(sigma->0) =      -14.67284744
  exchange ACFDT corr.  =        -0.00000000  see jH, gK, PRB 81, 115126


--------------------------------------------------------------------------------------------------------




--------------------------------------- Iteration      1(  31)  ---------------------------------------


    POTLOK:  cpu time    1.2732: real time    1.2764
    SETDIJ:  cpu time    0.3392: real time    0.3400
     EDDAV:  cpu time    1.5524: real time    1.5561
       DOS:  cpu time    0.0001: real time    0.0001
    CHARGE:  cpu time    0.2998: real time    0.3005
    MIXING:  cpu time    0.0069: real time    0.0069
    --------------------------------------------
      LOOP:  cpu time    3.4715: real time    3.4800

 eigenvalue-minimisations  :    64
 total energy-change (2. order) :-0.1799993E-03  (-0.1823246E-06)
 number of electron       8.0000000 magnetization      -0.0000031
 augmentation part       -0.7796144 magnetization       0.0000020

 Free energy of the ion-electron system (eV)
  ---------------------------------------------------
  alpha Z        PSCENC =         0.10045428
  Ewald energy   TEWEN  =        37.98610620
  -Hartree energ DENC   =      -282.86563325
  -exchange      EXHF   =        14.86541756
  -V(xc)+E(xc)   XCENC  =        13.38357285
  PAW double counting   =       126.91883772     -124.46384722
  entropy T*S    EENTRO =        -0.00000000
  eigenvalues    EBANDS =       -98.55854000
  atomic energy  EATOM  =       297.96060442
  Solvation  Ediel_sol  =         0.00000000
  ---------------------------------------------------
  free energy    TOTEN  =       -14.67302744 eV

  energy without entropy =      -14.67302744  energy(sigma->0) =      -14.67302744
  exchange ACFDT corr.  =        -0.00000000  see jH, gK, PRB 81, 115126


--------------------------------------------------------------------------------------------------------




--------------------------------------- Iteration      1(  32)  ---------------------------------------


    POTLOK:  cpu time    1.2685: real time    1.2716
    SETDIJ:  cpu time    0.3393: real time    0.3401
     EDDAV:  cpu time    1.3378: real time    1.3414
       DOS:  cpu time    0.0001: real time    0.0001
    CHARGE:  cpu time    0.2993: real time    0.3000
    MIXING:  cpu time    0.0066: real time    0.0066
    --------------------------------------------
      LOOP:  cpu time    3.2515: real time    3.2598

 eigenvalue-minimisations  :    52
 total energy-change (2. order) :-0.1553743E-03  (-0.1427001E-06)
 number of electron       8.0000000 magnetization       0.0000018
 augmentation part       -0.7796154 magnetization       0.0000056

 Free energy of the ion-electron system (eV)
  ---------------------------------------------------
  alpha Z        PSCENC =         0.10045428
  Ewald energy   TEWEN  =        37.98610620
  -Hartree energ DENC   =      -282.87251134
  -exchange      EXHF   =        14.86528750
  -V(xc)+E(xc)   XCENC  =        13.38353762
  PAW double counting   =       126.91672605     -124.46170594
  entropy T*S    EENTRO =        -0.00000000
  eigenvalues    EBANDS =       -98.55168160
  atomic energy  EATOM  =       297.96060442
  Solvation  Ediel_sol  =         0.00000000
  ---------------------------------------------------
  free energy    TOTEN  =       -14.67318281 eV

  energy without entropy =      -14.67318281  energy(sigma->0) =      -14.67318281
  exchange ACFDT corr.  =        -0.00000000  see jH, gK, PRB 81, 115126


--------------------------------------------------------------------------------------------------------




--------------------------------------- Iteration      1(  33)  ---------------------------------------


    POTLOK:  cpu time    1.2631: real time    1.2664
    SETDIJ:  cpu time    0.3387: real time    0.3395
[...]
       DOS:  cpu time    0.0001: real time    0.0001
    CHARGE:  cpu time    0.3018: real time    0.3025
    MIXING:  cpu time    0.0063: real time    0.0063
    --------------------------------------------
      LOOP:  cpu time    3.2992: real time    3.3073

 eigenvalue-minimisations  :    56
 total energy-change (2. order) :-0.1491633E-04  (-0.3206108E-08)
 number of electron       8.0000000 magnetization       0.0000000
 augmentation part       -0.7796255 magnetization       0.0000000

 Free energy of the ion-electron system (eV)
  ---------------------------------------------------
  alpha Z        PSCENC =         0.10045428
  Ewald energy   TEWEN  =        37.98610620
  -Hartree energ DENC   =      -282.93640969
  -exchange      EXHF   =        14.86421398
  -V(xc)+E(xc)   XCENC  =        13.38328460
  PAW double counting   =       126.89890730     -124.44363310
  entropy T*S    EENTRO =        -0.00000000
  eigenvalues    EBANDS =       -98.48797668
  atomic energy  EATOM  =       297.96060442
  Solvation  Ediel_sol  =         0.00000000
  ---------------------------------------------------
  free energy    TOTEN  =       -14.67444870 eV

  energy without entropy =      -14.67444870  energy(sigma->0) =      -14.67444870
  exchange ACFDT corr.  =        -0.00000000  see jH, gK, PRB 81, 115126


--------------------------------------------------------------------------------------------------------




--------------------------------------- Iteration      1(  57)  ---------------------------------------


    POTLOK:  cpu time    1.2464: real time    1.2506
    SETDIJ:  cpu time    0.3400: real time    0.3408
     EDDAV:  cpu time    1.4110: real time    1.4143
       DOS:  cpu time    0.0001: real time    0.0001
    CHARGE:  cpu time    0.3020: real time    0.3028
    MIXING:  cpu time    0.0072: real time    0.0072
    --------------------------------------------
      LOOP:  cpu time    3.3068: real time    3.3158

 eigenvalue-minimisations  :    56
 total energy-change (2. order) :-0.1366885E-04  (-0.2848436E-08)
 number of electron       8.0000000 magnetization      -0.0000000
 augmentation part       -0.7796256 magnetization       0.0000000

 Free energy of the ion-electron system (eV)
  ---------------------------------------------------
  alpha Z        PSCENC =         0.10045428
  Ewald energy   TEWEN  =        37.98610620
  -Hartree energ DENC   =      -282.93719622
  -exchange      EXHF   =        14.86420167
  -V(xc)+E(xc)   XCENC  =        13.38328168
  PAW double counting   =       126.89871032     -124.44343322
  entropy T*S    EENTRO =        -0.00000000
  eigenvalues    EBANDS =       -98.48719150
  atomic energy  EATOM  =       297.96060442
  Solvation  Ediel_sol  =         0.00000000
  ---------------------------------------------------
  free energy    TOTEN  =       -14.67446237 eV

  energy without entropy =      -14.67446237  energy(sigma->0) =      -14.67446237
  exchange ACFDT corr.  =        -0.00000000  see jH, gK, PRB 81, 115126


--------------------------------------------------------------------------------------------------------




--------------------------------------- Iteration      1(  58)  ---------------------------------------


    POTLOK:  cpu time    1.2444: real time    1.2476
    SETDIJ:  cpu time    0.3397: real time    0.3405
     EDDAV:  cpu time    1.4097: real time    1.4131
       DOS:  cpu time    0.0001: real time    0.0001
    CHARGE:  cpu time    0.3013: real time    0.3020
    MIXING:  cpu time    0.0063: real time    0.0063
    --------------------------------------------
      LOOP:  cpu time    3.3015: real time    3.3096

 eigenvalue-minimisations  :    56
 total energy-change (2. order) :-0.1250593E-04  (-0.2505012E-08)
 number of electron       8.0000000 magnetization       0.0000000
 augmentation part       -0.7796258 magnetization       0.0000000

 Free energy of the ion-electron system (eV)
  ---------------------------------------------------
  alpha Z        PSCENC =         0.10045428
  Ewald energy   TEWEN  =        37.98610620
  -Hartree energ DENC   =      -282.93792378
  -exchange      EXHF   =        14.86419032
  -V(xc)+E(xc)   XCENC  =        13.38327905
  PAW double counting   =       126.89852887     -124.44324910
  entropy T*S    EENTRO =        -0.00000000
  eigenvalues    EBANDS =       -98.48646513
  atomic energy  EATOM  =       297.96060442
  Solvation  Ediel_sol  =         0.00000000
  ---------------------------------------------------
  free energy    TOTEN  =       -14.67447488 eV

  energy without entropy =      -14.67447488  energy(sigma->0) =      -14.67447488
  exchange ACFDT corr.  =        -0.00000000  see jH, gK, PRB 81, 115126


--------------------------------------------------------------------------------------------------------




--------------------------------------- Iteration      1(  59)  ---------------------------------------


    POTLOK:  cpu time    1.2453: real time    1.2485
    SETDIJ:  cpu time    0.3411: real time    0.3419
     EDDAV:  cpu time    1.4157: real time    1.4191
       DOS:  cpu time    0.0001: real time    0.0001
    CHARGE:  cpu time    0.2995: real time    0.3002
    MIXING:  cpu time    0.0070: real time    0.0070
    --------------------------------------------
      LOOP:  cpu time    3.3087: real time    3.3168

 eigenvalue-minimisations  :    56
 total energy-change (2. order) :-0.1146827E-04  (-0.2227456E-08)
 number of electron       8.0000000 magnetization      -0.0000000
 augmentation part       -0.7796259 magnetization       0.0000000

 Free energy of the ion-electron system (eV)
  ---------------------------------------------------
  alpha Z        PSCENC =         0.10045428
  Ewald energy   TEWEN  =        37.98610620
  -Hartree energ DENC   =      -282.93859720
  -exchange      EXHF   =        14.86417986
  -V(xc)+E(xc)   XCENC  =        13.38327668
  PAW double counting   =       126.89836153     -124.44307929
  entropy T*S    EENTRO =        -0.00000000
  eigenvalues    EBANDS =       -98.48579283
  atomic energy  EATOM  =       297.96060442
  Solvation  Ediel_sol  =         0.00000000
  ---------------------------------------------------
  free energy    TOTEN  =       -14.67448634 eV

  energy without entropy =      -14.67448634  energy(sigma->0) =      -14.67448634
  exchange ACFDT corr.  =        -0.00000000  see jH, gK, PRB 81, 115126


--------------------------------------------------------------------------------------------------------




--------------------------------------- Iteration      1(  60)  ---------------------------------------


    POTLOK:  cpu time    1.2437: real time    1.2468
    SETDIJ:  cpu time    0.3375: real time    0.3383
     EDDAV:  cpu time    1.4084: real time    1.4117
       DOS:  cpu time    0.0001: real time    0.0001
    CHARGE:  cpu time    0.3008: real time    0.3015
    MIXING:  cpu time    0.0070: real time    0.0070
    --------------------------------------------
      LOOP:  cpu time    3.2975: real time    3.3055

 eigenvalue-minimisations  :    56
 total energy-change (2. order) :-0.1050289E-04  (-0.1968345E-08)
 number of electron       8.0000000 magnetization       0.0000000
 augmentation part       -0.7796260 magnetization       0.0000000

 Free energy of the ion-electron system (eV)
  ---------------------------------------------------
  alpha Z        PSCENC =         0.10045428
  Ewald energy   TEWEN  =        37.98610620
  -Hartree energ DENC   =      -282.93922072
  -exchange      EXHF   =        14.86417019
  -V(xc)+E(xc)   XCENC  =        13.38327455
  PAW double counting   =       126.89820708     -124.44292255
  entropy T*S    EENTRO =        -0.00000000
  eigenvalues    EBANDS =       -98.48517029
  atomic energy  EATOM  =       297.96060442
  Solvation  Ediel_sol  =         0.00000000
  ---------------------------------------------------
  free energy    TOTEN  =       -14.67449685 eV

  energy without entropy =      -14.67449685  energy(sigma->0) =      -14.67449685
  exchange ACFDT corr.  =        -0.00000000  see jH, gK, PRB 81, 115126


--------------------------------------------------------------------------------------------------------




--------------------------------------- Iteration      1(  61)  ---------------------------------------


    POTLOK:  cpu time    1.2491: real time    1.2523
    SETDIJ:  cpu time    0.3450: real time    0.3458
     EDDAV:  cpu time    1.4193: real time    1.4227
       DOS:  cpu time    0.0001: real time    0.0001
    --------------------------------------------
      LOOP:  cpu time    3.0136: real time    3.0210

 eigenvalue-minimisations  :    56
 total energy-change (2. order) :-0.9639496E-05  (-0.1753582E-08)
 number of electron       8.0000000 magnetization       0.0000000
 augmentation part       -0.7796260 magnetization       0.0000000

 Free energy of the ion-electron system (eV)
  ---------------------------------------------------
  alpha Z        PSCENC =         0.10045428
  Ewald energy   TEWEN  =        37.98610620
  -Hartree energ DENC   =      -282.93979827
  -exchange      EXHF   =        14.86416123
  -V(xc)+E(xc)   XCENC  =        13.38327262
  PAW double counting   =       126.89806431     -124.44277766
  entropy T*S    EENTRO =        -0.00000000
  eigenvalues    EBANDS =       -98.48459361
  atomic energy  EATOM  =       297.96060442
  Solvation  Ediel_sol  =         0.00000000
  ---------------------------------------------------
  free energy    TOTEN  =       -14.67450649 eV

  energy without entropy =      -14.67450649  energy(sigma->0) =      -14.67450649
  exchange ACFDT corr.  =        -0.00000000  see jH, gK, PRB 81, 115126


--------------------------------------------------------------------------------------------------------




 average (electrostatic) potential at core
  the test charge radii are     0.9698  0.5201
  (the norm of the test charge is              1.0000)
       1 -92.6644       2 -39.1385       3 -39.1392
 
 
 
 E-fermi :  -6.7951     XC(G=0):  -0.3662     alpha+bet : -0.1087


 spin component 1

 k-point     1 :       0.0000    0.0000    0.0000
  band No.  band energies     occupation 
      1     -20.3135      1.00000
      2     -11.8965      1.00000
      3      -9.9687      1.00000
      4      -7.0637      1.00000
      5      -0.5727      0.00000
      6      -0.0168      0.00000
      7       0.2174      0.00000
      8       0.5198      0.00000
      9       0.7141      0.00000
     10       0.7867      0.00000
     11       0.8216      0.00000
     12       0.9452      0.00000

 spin component 2

 k-point     1 :       0.0000    0.0000    0.0000
  band No.  band energies     occupation 
      1     -20.3135      1.00000
      2     -11.8965      1.00000
      3      -9.9687      1.00000
      4      -7.0637      1.00000
      5      -0.5727      0.00000
      6      -0.0168      0.00000
      7       0.2174      0.00000
      8       0.5198      0.00000
      9       0.7141      0.00000
     10       0.7867      0.00000
     11       0.8216      0.00000
     12       0.9453      0.00000


--------------------------------------------------------------------------------------------------------


 soft charge-density along one line, spin component           1
         0         1         2         3         4         5         6         7         8         9
 total charge-density along one line
 
 soft charge-density along one line, spin component           2
         0         1         2         3         4         5         6         7         8         9
 total charge-density along one line
 
 pseudopotential strength for first ion, spin component:           1
 41.337   0.015   0.028  -0.060   0.029   0.000  -0.001   0.000
  0.015   0.009  -0.000   0.000  -0.000   0.000  -0.000   0.000
  0.028  -0.000   8.487  -0.004   0.016   0.003   0.000  -0.001
 -0.060   0.000  -0.004   8.515   0.009   0.000   0.002  -0.000
  0.029  -0.000   0.016   0.009   8.515  -0.001  -0.000   0.002
  0.000   0.000   0.003   0.000  -0.001   0.027  -0.000   0.000
 -0.001  -0.000   0.000   0.002  -0.000  -0.000   0.027   0.000
  0.000   0.000  -0.001  -0.000   0.002   0.000   0.000   0.027
 pseudopotential strength for first ion, spin component:           2
 41.337   0.015   0.028  -0.060   0.029   0.000  -0.001   0.000
  0.015   0.009  -0.000   0.000  -0.000   0.000  -0.000   0.000
  0.028  -0.000   8.487  -0.004   0.016   0.003   0.000  -0.001
 -0.060   0.000  -0.004   8.515   0.009   0.000   0.002  -0.000
  0.029  -0.000   0.016   0.009   8.515  -0.001  -0.000   0.002
  0.000   0.000   0.003   0.000  -0.001   0.027  -0.000   0.000
 -0.001  -0.000   0.000   0.002  -0.000  -0.000   0.027   0.000
  0.000   0.000  -0.001  -0.000   0.002   0.000   0.000   0.027
 total augmentation occupancy for first ion, spin component:           1
  1.831  -0.854  -0.111   0.240  -0.114  -0.083   0.179  -0.085
 -0.854   2.560  -0.611   1.319  -0.626   0.449  -0.971   0.461
 -0.111  -0.611   1.733   0.043  -0.224  -0.412   0.082  -0.218
  0.240   1.319   0.043   1.366  -0.135   0.082  -0.809  -0.074
 -0.114  -0.626  -0.224  -0.135   1.344  -0.218  -0.074  -0.756
 -0.083   0.449  -0.412   0.082  -0.218   0.169  -0.072   0.219
  0.179  -0.971   0.082  -0.809  -0.074  -0.072   0.558   0.089
 -0.085   0.461  -0.218  -0.074  -0.756   0.219   0.089   0.524
 total augmentation occupancy for first ion, spin component:           2
 -0.000   0.000   0.000   0.000  -0.000   0.000  -0.000   0.000
  0.000   0.000   0.000   0.000  -0.000   0.000  -0.000   0.000
  0.000   0.000  -0.000  -0.000   0.000   0.000  -0.000   0.000
  0.000   0.000  -0.000  -0.000   0.000   0.000  -0.000   0.000
 -0.000  -0.000   0.000   0.000  -0.000  -0.000   0.000  -0.000
  0.000   0.000   0.000   0.000  -0.000  -0.000   0.000   0.000
 -0.000  -0.000  -0.000  -0.000   0.000   0.000  -0.000  -0.000
  0.000   0.000   0.000   0.000  -0.000   0.000  -0.000   0.000


------------------------ aborting loop because EDIFF is reached ----------------------------------------


 


 total charge     
 
# of ion       s       p       d       tot
------------------------------------------
    1        1.331   2.451   0.000   3.782
    2        0.561   0.035   0.000   0.597
    3        0.561   0.035   0.000   0.597
--------------------------------------------------
tot          2.454   2.522   0.000   4.975
 


 magnetization (x)
 
# of ion       s       p       d       tot
------------------------------------------
    1       -0.000  -0.000   0.000  -0.000
    2        0.000  -0.000   0.000   0.000
    3        0.000   0.000   0.000   0.000
--------------------------------------------------
tot          0.000  -0.000   0.000  -0.000
 
    CHARGE:  cpu time    0.3033: real time    0.3041
    FORLOC:  cpu time    0.0146: real time    0.0146
    FORHF :  cpu time    0.1903: real time    0.1907
    FORNL :  cpu time    1.7742: real time    1.7784
    FORCOR:  cpu time    1.6804: real time    1.6843
    FORHAR:  cpu time    0.0684: real time    0.0686
    MIXING:  cpu time    0.0063: real time    0.0063
    OFIELD:  cpu time    0.0000: real time    0.0000

 VOLUME and BASIS-vectors are now :
 -----------------------------------------------------------------------------
  energy-cutoff  :      400.00
  volume of cell :     2391.54
      direct lattice vectors                 reciprocal lattice vectors
    13.675000191  0.000000000  0.000000000     0.073126142  0.042219398  0.000000000
    -6.837500095 11.842897562  0.000000000     0.000000000  0.084438795  0.000000000
     0.000000000  0.000000000 14.767000198     0.000000000  0.000000000  0.067718561

  length of vectors
    13.675000191 13.675000191 14.767000198     0.084438795  0.084438795  0.067718561


 FORCES acting on ions
    electron-ion (+dipol)            ewald-force                    non-local-force                 convergence-correction
 -----------------------------------------------------------------------------------------------
   0.239E+02 0.233E+02 -.504E+02   -.260E+02 -.254E+02 0.550E+02   0.213E+01 0.207E+01 -.448E+01   0.271E-03 0.274E-03 -.253E-02
   -.398E+02 -.215E+02 0.715E+01   0.434E+02 0.235E+02 -.801E+01   -.367E+01 -.204E+01 0.909E+00   0.121E-03 0.812E-04 -.485E-03
   0.161E+02 -.167E+01 0.430E+02   -.174E+02 0.193E+01 -.470E+02   0.130E+01 -.275E+00 0.409E+01   0.138E-04 0.405E-04 -.626E-03
 -----------------------------------------------------------------------------------------------
   0.131E+00 0.129E+00 -.274E+00   0.000E+00 -.444E-15 0.711E-14   -.246E+00 -.240E+00 0.518E+00   0.406E-03 0.395E-03 -.364E-02
 
 
 POSITION                                       TOTAL-FORCE (eV/Angst)
 -----------------------------------------------------------------------------------
      7.52508      4.88487     10.46704         0.178586      0.173760     -0.375649
      8.67875      5.52433     10.18262        -0.246173     -0.142605      0.087906
      7.11562      4.97084      9.18422         0.067587     -0.031154      0.287743
 -----------------------------------------------------------------------------------
    total drift:                                0.000344      0.000232     -0.000535


--------------------------------------------------------------------------------------------------------



  FREE ENERGIE OF THE ION-ELECTRON SYSTEM (eV)
  ---------------------------------------------------
  free  energy   TOTEN  =       -14.67450649 eV

  energy  without entropy=      -14.67450649  energy(sigma->0) =      -14.67450649
 


--------------------------------------------------------------------------------------------------------


    POTLOK:  cpu time    1.6291: real time    1.6330


--------------------------------------------------------------------------------------------------------


 stress matrix after NEB project (eV)
      0.00000      0.00000      0.00000
      0.00000      0.00000      0.00000
      0.00000      0.00000      0.00000
  FORCES: max atom, RMS     0.450774    0.355995
  FORCE total and by dimension    0.616601    0.375649
  Stress total and by dimension    0.000000    0.000000
     LOOP+:  cpu time  200.3947: real time  201.0489
    4ORBIT:  cpu time    0.0000: real time    0.0000
 


 total charge     
 
# of ion       s       p       d       tot
------------------------------------------
    1        1.331   2.451   0.000   3.782
    2        0.561   0.035   0.000   0.597
    3        0.561   0.035   0.000   0.597
--------------------------------------------------
tot          2.454   2.522   0.000   4.975
 


 magnetization (x)
 
# of ion       s       p       d       tot
------------------------------------------
    1       -0.000  -0.000   0.000  -0.000
    2        0.000  -0.000   0.000   0.000
    3        0.000   0.000   0.000   0.000
--------------------------------------------------
tot          0.000  -0.000   0.000  -0.000
 

 total amount of memory used by VASP MPI-rank0   150844. kBytes
=======================================================================

   base      :      30000. kBytes
   nonlr-proj:        526. kBytes
   fftplans  :      69849. kBytes
   grid      :      49417. kBytes
   one-center:          6. kBytes
   HF        :          4. kBytes
   wavefun   :       1042. kBytes
 
  
  
 General timing and accounting informations for this job:
 ========================================================
  
                  Total CPU time used (sec):      208.650
                            User time (sec):      197.189
                          System time (sec):       11.460
                         Elapsed time (sec):      210.979
  
                   Maximum memory used (kb):      338884.
                   Average memory used (kb):           0.
  
                          Minor page faults:       102797
                          Major page faults:            0
                 Voluntary context switches:          821
