>>>  VASP 5.4.4 with BEEF-vdw and vtst
--------------------------------------------------------
>>>  Job information
     SLURM_JOBID=8841803
     SLURM_JOB_NODELIST=cpn-u22-25
     SLURM_NNODES=1
     SLURMTMPDIR=/scratch/8841803
     working directory = /projects/academic/ericwalk/ruthbell/Ads_Ag-SSZ13/DMS/vtst
--------------------------------------------------------
>>>  Module information
--------------------------------------------------------
>>>  Running Configuration
NPROCS=16
--------------------------------------------------------
>>>  Job started at Tue Jul  5 12:57:53 EDT 2022
--------------------------------------------------------
 running on   16 total cores
 distrk:  each k-point on   16 cores,    1 groups
 distr:  one band on    4 cores,    4 groups
 using from now: INCAR     
 vasp.5.4.4.18Apr17-6-g9f103f2a35 (build Dec 31 2018 11:41:54) complex          
  
 POSCAR found type information on POSCAR  O  Si Al Ag S  C  H 
 POSCAR found :  7 types and     120 ions
 scaLAPACK will be used
 LDA part: xc-table for Pade appr. of Perdew
 POSCAR found type information on POSCAR  O  Si Al Ag S  C  H 
 POSCAR found :  7 types and     120 ions
 POSCAR, INCAR and KPOINTS ok, starting setup
 FFT: planning ...
 WAVECAR not read
 entering main loop
       N       E                     dE             d eps       ncg     rms          rms(c)
DAV:   1     0.436066616319E+04    0.43607E+04   -0.26110E+05  1816   0.102E+03
DAV:   2    -0.445263649615E+03   -0.48059E+04   -0.46211E+04  2124   0.293E+02
DAV:   3    -0.961709331938E+03   -0.51645E+03   -0.51280E+03  2152   0.101E+02
DAV:   4    -0.972168062466E+03   -0.10459E+02   -0.10421E+02  2144   0.157E+01
DAV:   5    -0.972440982743E+03   -0.27292E+00   -0.27258E+00  2224   0.234E+00    0.882E+01
DAV:   6    -0.612479780340E+03    0.35996E+03   -0.76530E+02  2020   0.397E+01    0.294E+01
DAV:   7    -0.708653514874E+03   -0.96174E+02   -0.89938E+01  2056   0.128E+01    0.201E+01
DAV:   8    -0.779305958718E+03   -0.70652E+02   -0.31635E+01  2080   0.800E+00    0.117E+01
DAV:   9    -0.862735441585E+03   -0.83429E+02   -0.63450E+01  2044   0.929E+00    0.517E+00
DAV:  10    -0.877686387376E+03   -0.14951E+02   -0.91579E+00  2144   0.380E+00    0.372E+00
DAV:  11    -0.895329959769E+03   -0.17644E+02   -0.12694E+01  1928   0.416E+00    0.176E+00
DAV:  12    -0.897623929575E+03   -0.22940E+01   -0.12307E+00  2000   0.140E+00    0.981E-01
DAV:  13    -0.898707058361E+03   -0.10831E+01   -0.46625E-01  1928   0.899E-01    0.467E-01
DAV:  14    -0.898959981661E+03   -0.25292E+00   -0.93426E-02  1960   0.383E-01    0.272E-01
DAV:  15    -0.898989978363E+03   -0.29997E-01   -0.17432E-02  2064   0.252E-01    0.143E-01
DAV:  16    -0.898996658187E+03   -0.66798E-02   -0.44616E-03  2048   0.139E-01    0.983E-02
DAV:  17    -0.899003074945E+03   -0.64168E-02   -0.27093E-03  2136   0.111E-01    0.460E-02
DAV:  18    -0.899006290357E+03   -0.32154E-02   -0.12850E-03  2048   0.733E-02    0.473E-02
DAV:  19    -0.899006983654E+03   -0.69330E-03   -0.42068E-04  2096   0.452E-02    0.213E-02
DAV:  20    -0.899007594338E+03   -0.61068E-03   -0.33588E-04  2008   0.381E-02    0.166E-02
DAV:  21    -0.899007930426E+03   -0.33609E-03   -0.12411E-04  2048   0.241E-02    0.137E-02
DAV:  22    -0.899008076233E+03   -0.14581E-03   -0.68525E-05  2072   0.171E-02    0.409E-03
DAV:  23    -0.899008166586E+03   -0.90352E-04   -0.38399E-05  2072   0.124E-02    0.429E-03
DAV:  24    -0.899008218108E+03   -0.51523E-04   -0.15834E-05  2072   0.742E-03    0.248E-03
DAV:  25    -0.899008239813E+03   -0.21704E-04   -0.75542E-06  2128   0.490E-03    0.148E-03
DAV:  26    -0.899008256204E+03   -0.16391E-04   -0.45240E-06  2048   0.353E-03    0.130E-03
DAV:  27    -0.899008260858E+03   -0.46539E-05   -0.12564E-06  2128   0.178E-03    0.118E-03
DAV:  28    -0.899008261822E+03   -0.96404E-06   -0.59347E-07  2128   0.129E-03    0.111E-03
DAV:  29    -0.899008261904E+03   -0.82917E-07   -0.34221E-07  2104   0.950E-04    0.112E-03
DAV:  30    -0.899008261950E+03   -0.45911E-07   -0.10334E-07  2096   0.550E-04    0.108E-03
DAV:  31    -0.899008261993E+03   -0.42979E-07   -0.52276E-08  2040   0.372E-04    0.109E-03
DAV:  32    -0.899008262021E+03   -0.27729E-07   -0.17993E-08  1888   0.245E-04    0.108E-03
DAV:  33    -0.899008262030E+03   -0.93278E-08   -0.52085E-09  1912   0.132E-04
   1 F= -.89900826E+03 E0= -.89900826E+03  d E =-.899008E+03  mag=    -0.0000
quench:  g(F)=  0.000E+00 g(S)=  0.000E+00 dE (1.order)= 0.000E+00
 bond charge predicted
       N       E                     dE             d eps       ncg     rms          rms(c)
DAV:   1    -0.899008226153E+03    0.35868E-04   -0.84082E-04  1808   0.222E-02    0.813E-03
DAV:   2    -0.899008229598E+03   -0.34453E-05   -0.39907E-05  2048   0.516E-03    0.506E-03
DAV:   3    -0.899008229447E+03    0.15082E-06   -0.13804E-06  2160   0.108E-03    0.215E-03
DAV:   4    -0.899008229418E+03    0.29730E-07   -0.17749E-07  1984   0.406E-04    0.132E-03
DAV:   5    -0.899008229402E+03    0.15454E-07   -0.42718E-08  1960   0.254E-04    0.109E-03
DAV:   6    -0.899008229399E+03    0.26848E-08   -0.68179E-09  1624   0.126E-04
   2 F= -.89900823E+03 E0= -.89900823E+03  d E =0.326310E-04  mag=    -0.0000
quench:  g(F)=  0.000E+00 g(S)=  0.000E+00 dE (1.order)= 0.000E+00
 bond charge predicted
       N       E                     dE             d eps       ncg     rms          rms(c)
DAV:   1    -0.899008167605E+03    0.61797E-04   -0.17968E-03  1792   0.327E-02    0.109E-02
DAV:   2    -0.899008174038E+03   -0.64332E-05   -0.78426E-05  2096   0.804E-03    0.645E-03
DAV:   3    -0.899008173890E+03    0.14763E-06   -0.22853E-06  2160   0.157E-03    0.313E-03
DAV:   4    -0.899008174010E+03   -0.11948E-06   -0.28003E-07  2160   0.701E-04    0.141E-03
DAV:   5    -0.899008174072E+03   -0.62028E-07   -0.47578E-08  1880   0.349E-04    0.110E-03
DAV:   6    -0.899008174080E+03   -0.83528E-08   -0.14576E-08  1744   0.224E-04
   3 F= -.89900817E+03 E0= -.89900817E+03  d E =0.553193E-04  mag=    -0.0000
quench:  g(F)=  0.000E+00 g(S)=  0.000E+00 dE (1.order)= 0.000E+00
 bond charge predicted
       N       E                     dE             d eps       ncg     rms          rms(c)
DAV:   1    -0.899008252152E+03   -0.78081E-04   -0.19085E-03  1792   0.318E-02    0.106E-02
DAV:   2    -0.899008259166E+03   -0.70140E-05   -0.85429E-05  2128   0.700E-03    0.560E-03
DAV:   3    -0.899008259207E+03   -0.40352E-07   -0.19727E-06  2144   0.128E-03    0.319E-03
DAV:   4    -0.899008259260E+03   -0.53580E-07   -0.28796E-07  1984   0.601E-04    0.130E-03
DAV:   5    -0.899008259278E+03   -0.17826E-07   -0.61088E-08  1760   0.389E-04    0.110E-03
DAV:   6    -0.899008259283E+03   -0.44020E-08   -0.32847E-08  1680   0.344E-04
   4 F= -.89900826E+03 E0= -.89900826E+03  d E =-.852024E-04  mag=    -0.0000
quench:  g(F)=  0.000E+00 g(S)=  0.000E+00 dE (1.order)= 0.000E+00
 bond charge predicted
       N       E                     dE             d eps       ncg     rms          rms(c)
DAV:   1    -0.899008203521E+03    0.55757E-04   -0.33226E-03  1792   0.541E-02    0.124E-02
DAV:   2    -0.899008208435E+03   -0.49137E-05   -0.76649E-05  2136   0.763E-03    0.746E-03
DAV:   3    -0.899008207771E+03    0.66408E-06   -0.28023E-06  2128   0.176E-03    0.332E-03
DAV:   4    -0.899008207723E+03    0.47745E-07   -0.74793E-07  1936   0.879E-04    0.128E-03
DAV:   5    -0.899008207737E+03   -0.13199E-07   -0.13360E-07  1864   0.621E-04    0.112E-03
DAV:   6    -0.899008207745E+03   -0.81491E-08   -0.11303E-07  1824   0.673E-04    0.108E-03
DAV:   7    -0.899008207720E+03    0.24454E-07   -0.10028E-07  1792   0.617E-04    0.108E-03
DAV:   8    -0.899008207700E+03    0.20562E-07   -0.34571E-08  1696   0.356E-04    0.108E-03
DAV:   9    -0.899008207695E+03    0.48603E-08   -0.51648E-09  1632   0.135E-04
   5 F= -.89900821E+03 E0= -.89900821E+03  d E =0.515877E-04  mag=    -0.0000
quench:  g(F)=  0.000E+00 g(S)=  0.000E+00 dE (1.order)= 0.000E+00
 bond charge predicted
       N       E                     dE             d eps       ncg     rms          rms(c)
DAV:   1    -0.899008133454E+03    0.74245E-04   -0.45189E-03  1760   0.670E-02    0.138E-02
DAV:   2    -0.899008134469E+03   -0.10150E-05   -0.47152E-05  2064   0.571E-03    0.893E-03
DAV:   3    -0.899008133357E+03    0.11125E-05   -0.39794E-06  2176   0.213E-03    0.223E-03
DAV:   4    -0.899008133398E+03   -0.41087E-07   -0.98048E-07  2056   0.662E-04    0.129E-03
DAV:   5    -0.899008133361E+03    0.37478E-07   -0.54045E-08  1912   0.286E-04    0.112E-03
DAV:   6    -0.899008133357E+03    0.39654E-08   -0.12063E-08  1704   0.195E-04
   6 F= -.89900813E+03 E0= -.89900813E+03  d E =0.743383E-04  mag=    -0.0000
quench:  g(F)=  0.000E+00 g(S)=  0.000E+00 dE (1.order)= 0.000E+00
 bond charge predicted
       N       E                     dE             d eps       ncg     rms          rms(c)
DAV:   1    -0.899008281761E+03   -0.14840E-03   -0.47785E-03  1760   0.674E-02    0.136E-02
DAV:   2    -0.899008282197E+03   -0.43523E-06   -0.36828E-05  2136   0.536E-03    0.954E-03
DAV:   3    -0.899008281044E+03    0.11524E-05   -0.90956E-06  2152   0.320E-03    0.250E-03
DAV:   4    -0.899008280855E+03    0.18933E-06   -0.15025E-06  1936   0.121E-03    0.131E-03
DAV:   5    -0.899008280892E+03   -0.36729E-07   -0.20808E-07  1824   0.539E-04    0.112E-03
DAV:   6    -0.899008280898E+03   -0.59663E-08   -0.57440E-08  1824   0.416E-04
   7 F= -.89900828E+03 E0= -.89900828E+03  d E =-.147541E-03  mag=    -0.0000
quench:  g(F)=  0.000E+00 g(S)=  0.000E+00 dE (1.order)= 0.000E+00
 bond charge predicted
       N       E                     dE             d eps       ncg     rms          rms(c)
DAV:   1    -0.899008224184E+03    0.56708E-04   -0.47466E-03  1760   0.692E-02    0.133E-02
DAV:   2    -0.899008225190E+03   -0.10058E-05   -0.45381E-05  2128   0.600E-03    0.954E-03
DAV:   3    -0.899008223775E+03    0.14147E-05   -0.82052E-06  1968   0.320E-03    0.192E-03
DAV:   4    -0.899008223663E+03    0.11153E-06   -0.18347E-06  1840   0.167E-03    0.133E-03
DAV:   5    -0.899008223754E+03   -0.90979E-07   -0.61341E-07  1800   0.126E-03    0.112E-03
DAV:   6    -0.899008223680E+03    0.74244E-07   -0.60341E-07  1792   0.127E-03    0.109E-03
DAV:   7    -0.899008223631E+03    0.49171E-07   -0.32754E-07  1800   0.919E-04    0.108E-03
DAV:   8    -0.899008223580E+03    0.51485E-07   -0.71860E-08  1760   0.430E-04    0.108E-03
DAV:   9    -0.899008223579E+03    0.45111E-09   -0.18751E-09  1680   0.750E-05
   8 F= -.89900822E+03 E0= -.89900822E+03  d E =0.573186E-04  mag=    -0.0000
quench:  g(F)=  0.000E+00 g(S)=  0.000E+00 dE (1.order)= 0.000E+00
 bond charge predicted
       N       E                     dE             d eps       ncg     rms          rms(c)
DAV:   1    -0.899008162734E+03    0.60845E-04   -0.48147E-03  1776   0.663E-02    0.137E-02
DAV:   2    -0.899008162220E+03    0.51458E-06   -0.30458E-05  2128   0.525E-03    0.936E-03
DAV:   3    -0.899008161101E+03    0.11193E-05   -0.99827E-06  2112   0.319E-03    0.276E-03
DAV:   4    -0.899008160838E+03    0.26262E-06   -0.16686E-06  1936   0.118E-03    0.131E-03
DAV:   5    -0.899008160839E+03   -0.52387E-09   -0.16905E-07  2080   0.343E-04    0.113E-03
DAV:   6    -0.899008160835E+03    0.31432E-08   -0.52963E-09  1616   0.133E-04
   9 F= -.89900816E+03 E0= -.89900816E+03  d E =0.627437E-04  mag=     0.0000
quench:  g(F)=  0.000E+00 g(S)=  0.000E+00 dE (1.order)= 0.000E+00
 bond charge predicted
       N       E                     dE             d eps       ncg     rms          rms(c)
DAV:   1    -0.899008256915E+03   -0.96076E-04   -0.46959E-03  1760   0.669E-02    0.137E-02
DAV:   2    -0.899008257605E+03   -0.68989E-06   -0.38117E-05  2096   0.532E-03    0.935E-03
DAV:   3    -0.899008256483E+03    0.11221E-05   -0.72451E-06  2168   0.275E-03    0.181E-03
DAV:   4    -0.899008256475E+03    0.74506E-08   -0.12157E-06  1992   0.859E-04    0.131E-03
DAV:   5    -0.899008256507E+03   -0.32036E-07   -0.11075E-07  2064   0.326E-04    0.113E-03
DAV:   6    -0.899008256513E+03   -0.58135E-08   -0.70617E-09  1688   0.144E-04
  10 F= -.89900826E+03 E0= -.89900826E+03  d E =-.956778E-04  mag=     0.0000
quench:  g(F)=  0.000E+00 g(S)=  0.000E+00 dE (1.order)= 0.000E+00
 bond charge predicted
       N       E                     dE             d eps       ncg     rms          rms(c)
DAV:   1    -0.899008216650E+03    0.39857E-04   -0.27509E-03  1760   0.515E-02    0.112E-02
DAV:   2    -0.899008217137E+03   -0.48699E-06   -0.24995E-05  2144   0.438E-03    0.792E-03
DAV:   3    -0.899008216245E+03    0.89227E-06   -0.57814E-06  2144   0.272E-03    0.232E-03
DAV:   4    -0.899008216135E+03    0.11025E-06   -0.92812E-07  1920   0.102E-03    0.130E-03
DAV:   5    -0.899008216134E+03    0.29104E-09   -0.15290E-07  2000   0.482E-04    0.110E-03
DAV:   6    -0.899008216129E+03    0.54424E-08   -0.22901E-08  1728   0.327E-04
  11 F= -.89900822E+03 E0= -.89900822E+03  d E =0.403844E-04  mag=     0.0000
quench:  g(F)=  0.000E+00 g(S)=  0.000E+00 dE (1.order)= 0.000E+00
 bond charge predicted
       N       E                     dE             d eps       ncg     rms          rms(c)
DAV:   1    -0.899008081272E+03    0.13486E-03   -0.66818E-04  1808   0.222E-02    0.932E-03
DAV:   2    -0.899008081128E+03    0.14385E-06   -0.59151E-06  2048   0.236E-03    0.575E-03
DAV:   3    -0.899008081320E+03   -0.19187E-06   -0.19611E-06  2000   0.166E-03    0.177E-03
DAV:   4    -0.899008081218E+03    0.10133E-06   -0.42570E-07  1856   0.958E-04    0.127E-03
DAV:   5    -0.899008081308E+03   -0.89960E-07   -0.23910E-07  1792   0.887E-04    0.109E-03
DAV:   6    -0.899008081236E+03    0.71748E-07   -0.16453E-07  1792   0.827E-04    0.108E-03
DAV:   7    -0.899008081228E+03    0.82437E-08   -0.49697E-08  1712   0.440E-04
  12 F= -.89900808E+03 E0= -.89900808E+03  d E =0.134901E-03  mag=     0.0000
quench:  g(F)=  0.000E+00 g(S)=  0.000E+00 dE (1.order)= 0.000E+00
 bond charge predicted
       N       E                     dE             d eps       ncg     rms          rms(c)
DAV:   1    -0.899008315150E+03   -0.23391E-03   -0.67236E-04  1824   0.223E-02    0.893E-03
DAV:   2    -0.899008315089E+03    0.60740E-07   -0.57358E-06  2032   0.238E-03    0.556E-03
DAV:   3    -0.899008315207E+03   -0.11755E-06   -0.17678E-06  2064   0.147E-03    0.178E-03
DAV:   4    -0.899008315143E+03    0.63956E-07   -0.28307E-07  1984   0.593E-04    0.129E-03
DAV:   5    -0.899008315168E+03   -0.25328E-07   -0.95688E-08  1952   0.329E-04    0.109E-03
DAV:   6    -0.899008315166E+03    0.21610E-08   -0.85629E-09  1600   0.166E-04
  13 F= -.89900832E+03 E0= -.89900832E+03  d E =-.233938E-03  mag=     0.0000
quench:  g(F)=  0.000E+00 g(S)=  0.000E+00 dE (1.order)= 0.000E+00
 bond charge predicted
       N       E                     dE             d eps       ncg     rms          rms(c)
DAV:   1    -0.899008175026E+03    0.14014E-03   -0.66580E-04  1904   0.241E-02    0.999E-03
DAV:   2    -0.899008174445E+03    0.58163E-06   -0.81177E-06  2032   0.276E-03    0.639E-03
DAV:   3    -0.899008173909E+03    0.53606E-06   -0.27576E-06  2048   0.179E-03    0.218E-03
DAV:   4    -0.899008173817E+03    0.92085E-07   -0.49254E-07  1872   0.854E-04    0.138E-03
DAV:   5    -0.899008173809E+03    0.71886E-08   -0.20021E-07  1792   0.565E-04    0.109E-03
DAV:   6    -0.899008173793E+03    0.16902E-07   -0.72525E-08  1728   0.467E-04    0.108E-03
DAV:   7    -0.899008173813E+03   -0.20773E-07   -0.68517E-08  1712   0.439E-04    0.108E-03
DAV:   8    -0.899008173787E+03    0.26004E-07   -0.36891E-08  1664   0.321E-04    0.108E-03
DAV:   9    -0.899008173788E+03   -0.93132E-09   -0.12210E-09  1488   0.640E-05
  14 F= -.89900817E+03 E0= -.89900817E+03  d E =0.141377E-03  mag=     0.0000
quench:  g(F)=  0.000E+00 g(S)=  0.000E+00 dE (1.order)= 0.000E+00
 bond charge predicted
       N       E                     dE             d eps       ncg     rms          rms(c)
DAV:   1    -0.899008176929E+03   -0.31415E-05   -0.66923E-04  1872   0.224E-02    0.967E-03
DAV:   2    -0.899008176637E+03    0.29225E-06   -0.58190E-06  2016   0.226E-03    0.594E-03
DAV:   3    -0.899008176810E+03   -0.17332E-06   -0.23248E-06  2032   0.156E-03    0.193E-03
DAV:   4    -0.899008176708E+03    0.10191E-06   -0.40648E-07  1984   0.639E-04    0.130E-03
DAV:   5    -0.899008176743E+03   -0.34757E-07   -0.83885E-08  1952   0.267E-04    0.109E-03
DAV:   6    -0.899008176743E+03   -0.42201E-09   -0.26498E-09  1616   0.772E-05
  15 F= -.89900818E+03 E0= -.89900818E+03  d E =-.295490E-05  mag=    -0.0000
quench:  g(F)=  0.000E+00 g(S)=  0.000E+00 dE (1.order)= 0.000E+00
 bond charge predicted
       N       E                     dE             d eps       ncg     rms          rms(c)
DAV:   1    -0.899008347647E+03   -0.17090E-03   -0.69679E-04  1952   0.234E-02    0.132E-02
DAV:   2    -0.899008345051E+03    0.25967E-05   -0.12088E-05  2016   0.359E-03    0.800E-03
DAV:   3    -0.899008344032E+03    0.10181E-05   -0.62794E-06  2000   0.251E-03    0.295E-03
DAV:   4    -0.899008343836E+03    0.19681E-06   -0.11572E-06  1928   0.116E-03    0.163E-03
DAV:   5    -0.899008343753E+03    0.82626E-07   -0.17669E-07  1840   0.424E-04    0.109E-03
DAV:   6    -0.899008343756E+03   -0.33906E-08   -0.85427E-09  1640   0.123E-04
  16 F= -.89900834E+03 E0= -.89900834E+03  d E =-.167013E-03  mag=     0.0000
quench:  g(F)=  0.000E+00 g(S)=  0.000E+00 dE (1.order)= 0.000E+00
 bond charge predicted
       N       E                     dE             d eps       ncg     rms          rms(c)
DAV:   1    -0.899008248473E+03    0.95280E-04   -0.67070E-04  1920   0.240E-02    0.950E-03
DAV:   2    -0.899008248293E+03    0.18031E-06   -0.69970E-06  2032   0.233E-03    0.607E-03
DAV:   3    -0.899008248070E+03    0.22252E-06   -0.13734E-06  2080   0.128E-03    0.134E-03
DAV:   4    -0.899008248062E+03    0.79963E-08   -0.28087E-07  1920   0.502E-04    0.118E-03
DAV:   5    -0.899008248074E+03   -0.12020E-07   -0.53987E-08  1776   0.379E-04    0.109E-03
DAV:   6    -0.899008248065E+03    0.89494E-08   -0.32325E-08  1760   0.363E-04
  17 F= -.89900825E+03 E0= -.89900825E+03  d E =0.956911E-04  mag=     0.0000
quench:  g(F)=  0.000E+00 g(S)=  0.000E+00 dE (1.order)= 0.000E+00
 bond charge predicted
       N       E                     dE             d eps       ncg     rms          rms(c)
DAV:   1    -0.899008138628E+03    0.10945E-03   -0.65977E-04  1776   0.217E-02    0.808E-03
DAV:   2    -0.899008138655E+03   -0.26557E-07   -0.49189E-06  2032   0.192E-03    0.497E-03
DAV:   3    -0.899008138594E+03    0.60769E-07   -0.82851E-07  1960   0.115E-03    0.131E-03
DAV:   4    -0.899008138561E+03    0.33382E-07   -0.19633E-07  1824   0.710E-04    0.117E-03
DAV:   5    -0.899008138617E+03   -0.56491E-07   -0.16344E-07  1824   0.763E-04    0.109E-03
DAV:   6    -0.899008138547E+03    0.70570E-07   -0.11554E-07  1792   0.689E-04    0.108E-03
DAV:   7    -0.899008138544E+03    0.23210E-08   -0.19248E-08  1696   0.275E-04
  18 F= -.89900814E+03 E0= -.89900814E+03  d E =0.109521E-03  mag=    -0.0000
quench:  g(F)=  0.000E+00 g(S)=  0.000E+00 dE (1.order)= 0.000E+00
 bond charge predicted
       N       E                     dE             d eps       ncg     rms          rms(c)
DAV:   1    -0.899008271139E+03   -0.13259E-03   -0.66877E-04  1792   0.219E-02    0.808E-03
DAV:   2    -0.899008271320E+03   -0.18116E-06   -0.49766E-06  2112   0.205E-03    0.502E-03
DAV:   3    -0.899008271418E+03   -0.98036E-07   -0.91038E-07  2000   0.109E-03    0.140E-03
DAV:   4    -0.899008271400E+03    0.18117E-07   -0.13282E-07  2016   0.389E-04    0.118E-03
DAV:   5    -0.899008271406E+03   -0.63374E-08   -0.49941E-08  1872   0.252E-04
  19 F= -.89900827E+03 E0= -.89900827E+03  d E =-.132862E-03  mag=    -0.0000
quench:  g(F)=  0.000E+00 g(S)=  0.000E+00 dE (1.order)= 0.000E+00
 bond charge predicted
       N       E                     dE             d eps       ncg     rms          rms(c)
DAV:   1    -0.899008232810E+03    0.38590E-04   -0.66463E-04  1792   0.244E-02    0.861E-03
DAV:   2    -0.899008232900E+03   -0.89625E-07   -0.74811E-06  2064   0.233E-03    0.552E-03
DAV:   3    -0.899008232810E+03    0.89305E-07   -0.17884E-06  2048   0.148E-03    0.180E-03
DAV:   4    -0.899008232742E+03    0.68707E-07   -0.32360E-07  1952   0.593E-04    0.132E-03
DAV:   5    -0.899008232738E+03    0.39363E-08   -0.12029E-07  1824   0.345E-04    0.109E-03
DAV:   6    -0.899008232737E+03    0.59663E-09   -0.10877E-08  1616   0.159E-04
  20 F= -.89900823E+03 E0= -.89900823E+03  d E =0.386692E-04  mag=    -0.0000
quench:  g(F)=  0.000E+00 g(S)=  0.000E+00 dE (1.order)= 0.000E+00
 bond charge predicted
       N       E                     dE             d eps       ncg     rms          rms(c)
DAV:   1    -0.899008202795E+03    0.29943E-04   -0.68900E-04  1936   0.233E-02    0.115E-02
DAV:   2    -0.899008201840E+03    0.95512E-06   -0.10137E-05  1904   0.312E-03    0.717E-03
DAV:   3    -0.899008201940E+03   -0.99593E-07   -0.49744E-06  1960   0.221E-03    0.270E-03
DAV:   4    -0.899008201720E+03    0.21944E-06   -0.89208E-07  1792   0.101E-03    0.157E-03
DAV:   5    -0.899008201816E+03   -0.95271E-07   -0.22640E-07  1776   0.527E-04    0.110E-03
DAV:   6    -0.899008201804E+03    0.11656E-07   -0.50894E-08  1712   0.396E-04    0.108E-03
DAV:   7    -0.899008201824E+03   -0.19805E-07   -0.64614E-08  1744   0.443E-04    0.108E-03
DAV:   8    -0.899008201798E+03    0.26062E-07   -0.42974E-08  1712   0.361E-04    0.108E-03
DAV:   9    -0.899008201796E+03    0.20664E-08   -0.32603E-09  1568   0.990E-05
  21 F= -.89900820E+03 E0= -.89900820E+03  d E =0.309416E-04  mag=     0.0000
quench:  g(F)=  0.000E+00 g(S)=  0.000E+00 dE (1.order)= 0.000E+00
 bond charge predicted
       N       E                     dE             d eps       ncg     rms          rms(c)
DAV:   1    -0.899008331710E+03   -0.12991E-03   -0.69132E-04  1984   0.234E-02    0.122E-02
DAV:   2    -0.899008329786E+03    0.19238E-05   -0.11590E-05  1952   0.335E-03    0.759E-03
DAV:   3    -0.899008328921E+03    0.86532E-06   -0.59395E-06  1952   0.237E-03    0.288E-03
DAV:   4    -0.899008328736E+03    0.18568E-06   -0.10177E-06  1872   0.102E-03    0.162E-03
DAV:   5    -0.899008328672E+03    0.63905E-07   -0.24069E-07  1912   0.432E-04    0.110E-03
DAV:   6    -0.899008328672E+03   -0.12369E-09   -0.74897E-09  1616   0.104E-04
  22 F= -.89900833E+03 E0= -.89900833E+03  d E =-.126876E-03  mag=     0.0000
quench:  g(F)=  0.000E+00 g(S)=  0.000E+00 dE (1.order)= 0.000E+00
 bond charge predicted
       N       E                     dE             d eps       ncg     rms          rms(c)
DAV:   1    -0.899008216225E+03    0.11245E-03   -0.67994E-04  1904   0.239E-02    0.113E-02
DAV:   2    -0.899008214984E+03    0.12412E-05   -0.99189E-06  2000   0.328E-03    0.682E-03
DAV:   3    -0.899008215262E+03   -0.27800E-06   -0.56409E-06  1936   0.229E-03    0.292E-03
DAV:   4    -0.899008215021E+03    0.24150E-06   -0.10208E-06  1936   0.106E-03    0.169E-03
DAV:   5    -0.899008215169E+03   -0.14819E-06   -0.17150E-07  1760   0.415E-04    0.109E-03
DAV:   6    -0.899008215161E+03    0.78071E-08   -0.95951E-09  1664   0.141E-04
  23 F= -.89900822E+03 E0= -.89900822E+03  d E =0.113511E-03  mag=    -0.0000
quench:  g(F)=  0.000E+00 g(S)=  0.000E+00 dE (1.order)= 0.000E+00
 bond charge predicted
       N       E                     dE             d eps       ncg     rms          rms(c)
DAV:   1    -0.899008182735E+03    0.32434E-04   -0.68103E-04  1952   0.216E-02    0.117E-02
DAV:   2    -0.899008181029E+03    0.17062E-05   -0.10022E-05  1984   0.303E-03    0.714E-03
DAV:   3    -0.899008180290E+03    0.73845E-06   -0.46597E-06  1952   0.213E-03    0.261E-03
DAV:   4    -0.899008180137E+03    0.15330E-06   -0.86448E-07  1840   0.100E-03    0.155E-03
DAV:   5    -0.899008180085E+03    0.52452E-07   -0.19338E-07  1680   0.515E-04    0.109E-03
DAV:   6    -0.899008180078E+03    0.70650E-08   -0.55170E-08  1680   0.371E-04
  24 F= -.89900818E+03 E0= -.89900818E+03  d E =0.350835E-04  mag=     0.0000
quench:  g(F)=  0.000E+00 g(S)=  0.000E+00 dE (1.order)= 0.000E+00
 bond charge predicted
       N       E                     dE             d eps       ncg     rms          rms(c)
DAV:   1    -0.899008229477E+03   -0.49392E-04   -0.66769E-04  1784   0.208E-02    0.758E-03
DAV:   2    -0.899008229658E+03   -0.18079E-06   -0.39556E-06  1968   0.167E-03    0.474E-03
DAV:   3    -0.899008229622E+03    0.35492E-07   -0.70069E-07  1804   0.102E-03    0.118E-03
DAV:   4    -0.899008229561E+03    0.60536E-07   -0.30737E-07  1776   0.796E-04    0.112E-03
DAV:   5    -0.899008229676E+03   -0.11495E-06   -0.32144E-07  1760   0.859E-04    0.109E-03
DAV:   6    -0.899008229550E+03    0.12669E-06   -0.25452E-07  1760   0.762E-04    0.108E-03
DAV:   7    -0.899008229536E+03    0.13686E-07   -0.23141E-08  1664   0.229E-04    0.108E-03
DAV:   8    -0.899008229535E+03    0.13461E-08   -0.15937E-09  1536   0.678E-05
  25 F= -.89900823E+03 E0= -.89900823E+03  d E =-.494571E-04  mag=     0.0000
quench:  g(F)=  0.000E+00 g(S)=  0.000E+00 dE (1.order)= 0.000E+00
 bond charge predicted
       N       E                     dE             d eps       ncg     rms          rms(c)
DAV:   1    -0.899008291361E+03   -0.61825E-04   -0.67526E-04  1760   0.230E-02    0.865E-03
DAV:   2    -0.899008291545E+03   -0.18324E-06   -0.47185E-06  2048   0.196E-03    0.544E-03
DAV:   3    -0.899008291754E+03   -0.20943E-06   -0.14213E-06  2048   0.120E-03    0.175E-03
DAV:   4    -0.899008291685E+03    0.69464E-07   -0.18640E-07  1936   0.453E-04    0.131E-03
DAV:   5    -0.899008291689E+03   -0.40818E-08   -0.11059E-07  1872   0.314E-04    0.108E-03
DAV:   6    -0.899008291685E+03    0.38053E-08   -0.80901E-09  1584   0.124E-04
  26 F= -.89900829E+03 E0= -.89900829E+03  d E =-.621501E-04  mag=     0.0000
quench:  g(F)=  0.000E+00 g(S)=  0.000E+00 dE (1.order)= 0.000E+00
 bond charge predicted
       N       E                     dE             d eps       ncg     rms          rms(c)
DAV:   1    -0.899008129829E+03    0.16186E-03   -0.67267E-04  1748   0.217E-02    0.755E-03
DAV:   2    -0.899008130125E+03   -0.29637E-06   -0.42178E-06  2048   0.177E-03    0.475E-03
DAV:   3    -0.899008130220E+03   -0.94646E-07   -0.60156E-07  2000   0.951E-04    0.119E-03
DAV:   4    -0.899008130212E+03    0.72760E-08   -0.93862E-08  1904   0.356E-04
  27 F= -.89900813E+03 E0= -.89900813E+03  d E =0.161473E-03  mag=     0.0000
quench:  g(F)=  0.000E+00 g(S)=  0.000E+00 dE (1.order)= 0.000E+00
 bond charge predicted
       N       E                     dE             d eps       ncg     rms          rms(c)
DAV:   1    -0.899008277541E+03   -0.14732E-03   -0.67152E-04  1816   0.221E-02    0.898E-03
DAV:   2    -0.899008277492E+03    0.49244E-07   -0.66899E-06  2080   0.245E-03    0.564E-03
DAV:   3    -0.899008277675E+03   -0.18310E-06   -0.21497E-06  1956   0.166E-03    0.186E-03
DAV:   4    -0.899008277577E+03    0.98153E-07   -0.47059E-07  1808   0.923E-04    0.133E-03
DAV:   5    -0.899008277707E+03   -0.13006E-06   -0.33708E-07  1792   0.856E-04    0.110E-03
DAV:   6    -0.899008277601E+03    0.10618E-06   -0.21735E-07  1776   0.756E-04    0.108E-03
DAV:   7    -0.899008277607E+03   -0.56680E-08   -0.65651E-08  1728   0.407E-04
  28 F= -.89900828E+03 E0= -.89900828E+03  d E =-.147394E-03  mag=     0.0000
quench:  g(F)=  0.000E+00 g(S)=  0.000E+00 dE (1.order)= 0.000E+00
--------------------------------------------------------
>>>  Job finished at Tue Jul  5 14:10:40 EDT 2022
