>>>  VASP 5.4.4 with BEEF-vdw and vtst
--------------------------------------------------------
>>>  Job information
     SLURM_JOBID=8709724
     SLURM_JOB_NODELIST=cpn-u22-16
     SLURM_NNODES=1
     SLURMTMPDIR=/scratch/8709724
     working directory = /projects/academic/ericwalk/ruthbell/Ads_Ag-SSZ13/O2_1/PBE
--------------------------------------------------------
>>>  Module information
--------------------------------------------------------
>>>  Running Configuration
NPROCS=16
--------------------------------------------------------
>>>  Job started at Thu Jun 23 14:33:52 EDT 2022
--------------------------------------------------------
 running on   16 total cores
 distrk:  each k-point on   16 cores,    1 groups
 distr:  one band on    4 cores,    4 groups
 using from now: INCAR     
 vasp.5.4.4.18Apr17-6-g9f103f2a35 (build Dec 31 2018 11:41:54) complex          
  
 POSCAR found type information on POSCAR  O  Si Al Ag
 POSCAR found :  4 types and     113 ions
 scaLAPACK will be used
 LDA part: xc-table for Pade appr. of Perdew
 POSCAR found type information on POSCAR  O  Si Al Ag
 POSCAR found :  4 types and     113 ions
 POSCAR, INCAR and KPOINTS ok, starting setup
 FFT: planning ...
 WAVECAR not read
 entering main loop
       N       E                     dE             d eps       ncg     rms          rms(c)
DAV:   1     0.443900248296E+04    0.44390E+04   -0.25779E+05  1776   0.103E+03
DAV:   2    -0.404398552404E+03   -0.48434E+04   -0.46614E+04  2104   0.297E+02
DAV:   3    -0.933962729478E+03   -0.52956E+03   -0.52580E+03  2096   0.103E+02
DAV:   4    -0.944768889511E+03   -0.10806E+02   -0.10765E+02  2136   0.161E+01
DAV:   5    -0.945049401260E+03   -0.28051E+00   -0.28016E+00  2136   0.238E+00    0.874E+01
DAV:   6    -0.592577611272E+03    0.35247E+03   -0.72203E+02  2028   0.413E+01    0.302E+01
DAV:   7    -0.686036940850E+03   -0.93459E+02   -0.10091E+02  2300   0.174E+01    0.205E+01
DAV:   8    -0.733507598757E+03   -0.47471E+02   -0.21076E+01  2224   0.862E+00    0.144E+01
DAV:   9    -0.803096183392E+03   -0.69589E+02   -0.39058E+01  1992   0.847E+00    0.722E+00
DAV:  10    -0.837957710759E+03   -0.34862E+02   -0.23450E+01  2068   0.579E+00    0.521E+00
DAV:  11    -0.844523668630E+03   -0.65660E+01   -0.28650E+00  2176   0.246E+00    0.776E+00
DAV:  12    -0.843636257690E+03    0.88741E+00   -0.30945E-01  1936   0.987E-01    0.772E+00
DAV:  13    -0.844093258438E+03   -0.45700E+00   -0.12433E-01  2184   0.632E-01    0.658E+00
DAV:  14    -0.853880119433E+03   -0.97869E+01   -0.57288E+00  2084   0.387E+00    0.101E+01
DAV:  15    -0.853887938624E+03   -0.78192E-02   -0.74532E-01  2136   0.129E+00    0.126E+01
DAV:  16    -0.856213490351E+03   -0.23256E+01   -0.11294E+00  2208   0.205E+00    0.662E+00
DAV:  17    -0.859735442040E+03   -0.35220E+01   -0.21374E+00  2136   0.257E+00    0.532E+00
DAV:  18    -0.860906230601E+03   -0.11708E+01   -0.10044E+00  2352   0.203E+00    0.414E+00
DAV:  19    -0.861082417649E+03   -0.17619E+00   -0.25904E-01  2216   0.947E-01    0.171E+00
DAV:  20    -0.861175466250E+03   -0.93049E-01   -0.43348E-02  1904   0.360E-01    0.159E+00
DAV:  21    -0.861251997749E+03   -0.76531E-01   -0.50597E-02  2328   0.547E-01    0.731E-01
DAV:  22    -0.861264383812E+03   -0.12386E-01   -0.66456E-02  2256   0.258E-01    0.107E+00
DAV:  23    -0.861252635710E+03    0.11748E-01   -0.36544E-02  2080   0.266E-01    0.985E-01
DAV:  24    -0.861365680103E+03   -0.11304E+00   -0.59445E-02  2472   0.318E-01    0.912E+00
DAV:  25    -0.861160050694E+03    0.20563E+00   -0.21414E-02  1944   0.354E-01    0.297E+00
DAV:  26    -0.861241843008E+03   -0.81792E-01   -0.46346E-02  2128   0.277E-01    0.678E-01
DAV:  27    -0.861295434914E+03   -0.53592E-01   -0.17503E-02  2096   0.218E-01    0.210E-01
DAV:  28    -0.861302640432E+03   -0.72055E-02   -0.14273E-03  2024   0.702E-02    0.186E-01
DAV:  29    -0.861304965761E+03   -0.23253E-02   -0.40837E-04  1936   0.416E-02    0.187E-01
DAV:  30    -0.861305109086E+03   -0.14332E-03   -0.43760E-04  1936   0.412E-02    0.221E-01
DAV:  31    -0.861305241642E+03   -0.13256E-03   -0.20846E-04  1904   0.218E-02    0.241E-01
DAV:  32    -0.861305810552E+03   -0.56891E-03   -0.93947E-05  1904   0.285E-02    0.221E-01
DAV:  33    -0.861305855476E+03   -0.44924E-04   -0.45191E-05  1688   0.867E-03    0.233E-01
DAV:  34    -0.861305968732E+03   -0.11326E-03   -0.98214E-06  1472   0.687E-03    0.230E-01
DAV:  35    -0.861306120721E+03   -0.15199E-03   -0.20045E-05  1576   0.824E-03    0.230E-01
DAV:  36    -0.861306118622E+03    0.20997E-05   -0.55430E-06  1504   0.447E-03
   1 F= -.86130612E+03 E0= -.86130610E+03  d E =-.861306E+03  mag=     0.0454
 BRION: g(F)=  0.588E+01 g(S)=  0.000E+00
 bond charge predicted
       N       E                     dE             d eps       ncg     rms          rms(c)
DAV:   1    -0.856622536911E+03    0.46836E+01   -0.22693E+03  1728   0.498E+01    0.122E+01
DAV:   2    -0.863773969853E+03   -0.71514E+01   -0.92274E+01  1880   0.102E+01    0.148E+01
DAV:   3    -0.862315214481E+03    0.14588E+01   -0.19043E+01  2160   0.738E+00    0.494E+00
DAV:   4    -0.862028668310E+03    0.28655E+00   -0.23018E+00  2056   0.389E+00    0.732E+00
DAV:   5    -0.861799135996E+03    0.22953E+00   -0.12026E+00  1976   0.777E-01    0.443E+00
DAV:   6    -0.861960325771E+03   -0.16119E+00   -0.91813E-01  2464   0.122E+00    0.709E+00
DAV:   7    -0.861894983274E+03    0.65342E-01   -0.70489E-02  1960   0.428E-01    0.474E+00
DAV:   8    -0.861798303811E+03    0.96679E-01   -0.24103E-02  1856   0.373E-01    0.480E+00
DAV:   9    -0.862244687550E+03   -0.44638E+00   -0.76837E-01  2064   0.911E-01    0.184E+00
DAV:  10    -0.862264202825E+03   -0.19515E-01   -0.16320E-01  2464   0.122E+00    0.157E+00
DAV:  11    -0.862263788616E+03    0.41421E-03   -0.38070E-02  1904   0.351E-01    0.149E+00
DAV:  12    -0.862061597867E+03    0.20219E+00   -0.19901E-01  2200   0.690E-01    0.266E+00
DAV:  13    -0.862018198937E+03    0.43399E-01   -0.17180E-01  2048   0.228E-01    0.291E+00
DAV:  14    -0.862189144872E+03   -0.17095E+00   -0.69141E-01  1928   0.528E-01    0.187E+00
DAV:  15    -0.862229010030E+03   -0.39865E-01   -0.31232E-02  1992   0.215E-01    0.180E+00
DAV:  16    -0.862216303949E+03    0.12706E-01   -0.59941E-03  1992   0.789E-02    0.199E+00
DAV:  17    -0.862175704677E+03    0.40599E-01   -0.54325E-03  2032   0.104E-01    0.235E+00
DAV:  18    -0.862184495508E+03   -0.87908E-02   -0.66388E-04  1824   0.438E-02    0.227E+00
DAV:  19    -0.862202538939E+03   -0.18043E-01   -0.83687E-04  1984   0.411E-02    0.210E+00
DAV:  20    -0.862250079825E+03   -0.47541E-01   -0.76927E-03  2112   0.126E-01    0.153E+00
DAV:  21    -0.862270614864E+03   -0.20535E-01   -0.52335E-03  2192   0.932E-02    0.114E+00
DAV:  22    -0.862287973098E+03   -0.17358E-01   -0.82125E-03  2176   0.125E-01    0.616E-01
DAV:  23    -0.862296430337E+03   -0.84572E-02   -0.56813E-03  2240   0.148E-01    0.199E-01
DAV:  24    -0.862297147190E+03   -0.71685E-03   -0.18046E-03  2240   0.705E-02    0.907E-02
DAV:  25    -0.862297280287E+03   -0.13310E-03   -0.22798E-04  2080   0.250E-02    0.939E-02
DAV:  26    -0.862297340510E+03   -0.60223E-04   -0.76308E-04  1912   0.274E-02    0.453E-02
DAV:  27    -0.862297393416E+03   -0.52906E-04   -0.28017E-04  1912   0.195E-02    0.339E-02
DAV:  28    -0.862297362978E+03    0.30438E-04   -0.21730E-04  1640   0.120E-02    0.401E-02
DAV:  29    -0.862297402421E+03   -0.39443E-04   -0.99082E-05  1520   0.838E-03    0.330E-02
DAV:  30    -0.862297392630E+03    0.97910E-05   -0.83395E-05  1568   0.693E-03
   2 F= -.86229739E+03 E0= -.86229739E+03  d E =-.991274E+00  mag=    -0.0038
 BRION: g(F)=  0.341E+01 g(S)=  0.000E+00 retain N=  1 mean eig= 0.58
 eig:   0.580
 bond charge predicted
       N       E                     dE             d eps       ncg     rms          rms(c)
DAV:   1    -0.862039323434E+03    0.25808E+00   -0.40154E+02  1712   0.249E+01    0.280E+00
DAV:   2    -0.862652111765E+03   -0.61279E+00   -0.73858E+00  2032   0.409E+00    0.190E+00
DAV:   3    -0.862647080619E+03    0.50311E-02   -0.13535E-01  2040   0.703E-01    0.110E+00
DAV:   4    -0.862616577601E+03    0.30503E-01   -0.63602E-02  2024   0.473E-01    0.414E-01
DAV:   5    -0.862620390209E+03   -0.38126E-02   -0.14814E-02  1976   0.249E-01    0.177E-01
DAV:   6    -0.862620222728E+03    0.16748E-03   -0.35257E-03  2408   0.163E-01    0.954E-02
DAV:   7    -0.862620104125E+03    0.11860E-03   -0.99150E-04  2248   0.768E-02    0.626E-02
DAV:   8    -0.862619948873E+03    0.15525E-03   -0.52819E-04  2280   0.664E-02    0.393E-02
DAV:   9    -0.862619889212E+03    0.59661E-04   -0.86596E-04  2224   0.677E-02    0.329E-02
DAV:  10    -0.862619991575E+03   -0.10236E-03   -0.54175E-04  2064   0.335E-02    0.296E-02
DAV:  11    -0.862620056551E+03   -0.64976E-04   -0.48172E-04  1704   0.237E-02    0.261E-02
DAV:  12    -0.862620104305E+03   -0.47754E-04   -0.94812E-04  1768   0.223E-02    0.270E-02
DAV:  13    -0.862620204342E+03   -0.10004E-03   -0.37144E-04  1864   0.137E-02    0.238E-02
DAV:  14    -0.862620258731E+03   -0.54390E-04   -0.99735E-05  1496   0.668E-03    0.209E-02
DAV:  15    -0.862620282967E+03   -0.24235E-04   -0.23940E-04  1448   0.628E-03    0.207E-02
DAV:  16    -0.862620098827E+03    0.18414E-03   -0.29623E-03  1824   0.270E-02    0.321E-02
DAV:  17    -0.862619593244E+03    0.50558E-03   -0.68685E-03  1856   0.343E-02    0.474E-02
DAV:  18    -0.862619993148E+03   -0.39990E-03   -0.30357E-03  1920   0.225E-02    0.387E-02
DAV:  19    -0.862620476263E+03   -0.48311E-03   -0.83402E-04  1792   0.338E-02    0.193E-02
DAV:  20    -0.862620318409E+03    0.15785E-03   -0.32860E-03  1840   0.332E-02    0.287E-02
DAV:  21    -0.862620227383E+03    0.91026E-04   -0.29074E-03  1752   0.208E-02    0.329E-02
DAV:  22    -0.862620378045E+03   -0.15066E-03   -0.17934E-03  1736   0.153E-02    0.289E-02
DAV:  23    -0.862620601202E+03   -0.22316E-03   -0.47538E-04  1640   0.125E-02    0.188E-02
DAV:  24    -0.862620090889E+03    0.51031E-03   -0.52795E-03  1744   0.323E-02    0.380E-02
DAV:  25    -0.862620740422E+03   -0.64953E-03   -0.43093E-04  1736   0.322E-02    0.976E-03
DAV:  26    -0.862620291271E+03    0.44915E-03   -0.47730E-03  1744   0.359E-02    0.322E-02
DAV:  27    -0.862620738813E+03   -0.44754E-03   -0.14415E-04  1696   0.201E-02    0.115E-02
DAV:  28    -0.862620721781E+03    0.17032E-04   -0.48404E-04  1464   0.790E-03    0.130E-02
DAV:  29    -0.862620649457E+03    0.72324E-04   -0.10742E-03  1584   0.127E-02    0.191E-02
DAV:  30    -0.862620793331E+03   -0.14387E-03   -0.31950E-05  1568   0.123E-02    0.708E-03
DAV:  31    -0.862620750824E+03    0.42507E-04   -0.44283E-04  1280   0.944E-03    0.129E-02
DAV:  32    -0.862620800004E+03   -0.49181E-04   -0.12949E-05  1272   0.650E-03    0.750E-03
DAV:  33    -0.862620795220E+03    0.47847E-05   -0.78049E-05  1328   0.343E-03
   3 F= -.86262080E+03 E0= -.86262080E+03  d E =-.323403E+00  mag=     0.0000
 BRION: g(F)=  0.692E+01 g(S)=  0.000E+00 retain N=  2 mean eig= 0.38
 eig:   0.381  0.381
 bond charge predicted
       N       E                     dE             d eps       ncg     rms          rms(c)
DAV:   1    -0.862609699316E+03    0.11101E-01   -0.12365E+02  1872   0.107E+01    0.330E+00
DAV:   2    -0.862893750142E+03   -0.28405E+00   -0.41805E+00  2096   0.199E+00    0.143E+00
DAV:   3    -0.862925387904E+03   -0.31638E-01   -0.11128E-01  2304   0.744E-01    0.750E-01
DAV:   4    -0.862925792509E+03   -0.40460E-03   -0.20091E-02  2248   0.388E-01    0.340E-01
DAV:   5    -0.862928665976E+03   -0.28735E-02   -0.59908E-03  2344   0.221E-01    0.230E-01
DAV:   6    -0.862928522323E+03    0.14365E-03   -0.20747E-03  2136   0.111E-01    0.880E-02
DAV:   7    -0.862928723698E+03   -0.20137E-03   -0.49756E-04  2192   0.556E-02    0.519E-02
DAV:   8    -0.862928673009E+03    0.50688E-04   -0.29230E-04  2208   0.458E-02    0.350E-02
DAV:   9    -0.862928659472E+03    0.13538E-04   -0.24696E-04  2216   0.396E-02    0.262E-02
DAV:  10    -0.862928695209E+03   -0.35738E-04   -0.19822E-04  2016   0.256E-02    0.247E-02
DAV:  11    -0.862928720027E+03   -0.24817E-04   -0.16687E-04  1560   0.190E-02    0.224E-02
DAV:  12    -0.862928712567E+03    0.74592E-05   -0.57832E-04  1784   0.263E-02    0.245E-02
DAV:  13    -0.862928799742E+03   -0.87175E-04   -0.16096E-04  1816   0.137E-02    0.218E-02
DAV:  14    -0.862928830122E+03   -0.30380E-04   -0.11862E-05  1384   0.581E-03    0.200E-02
DAV:  15    -0.862928771046E+03    0.59076E-04   -0.11591E-04  1432   0.110E-02    0.228E-02
DAV:  16    -0.862928797903E+03   -0.26857E-04   -0.69825E-04  1648   0.231E-02    0.222E-02
DAV:  17    -0.862927978328E+03    0.81958E-03   -0.58938E-03  1848   0.556E-02    0.485E-02
DAV:  18    -0.862928780201E+03   -0.80187E-03   -0.91580E-04  1776   0.296E-02    0.313E-02
DAV:  19    -0.862928261668E+03    0.51853E-03   -0.41204E-03  1768   0.588E-02    0.407E-02
DAV:  20    -0.862928343622E+03   -0.81954E-04   -0.12960E-03  1864   0.244E-02    0.386E-02
DAV:  21    -0.862928900133E+03   -0.55651E-03   -0.42122E-04  1704   0.277E-02    0.238E-02
DAV:  22    -0.862928640565E+03    0.25957E-03   -0.24815E-03  1696   0.384E-02    0.341E-02
DAV:  23    -0.862928345020E+03    0.29555E-03   -0.37303E-03  1840   0.379E-02    0.443E-02
DAV:  24    -0.862928740650E+03   -0.39563E-03   -0.15221E-03  1712   0.257E-02    0.370E-02
DAV:  25    -0.862929075735E+03   -0.33508E-03   -0.55526E-04  1704   0.311E-02    0.250E-02
DAV:  26    -0.862929103104E+03   -0.27369E-04   -0.99246E-06  1512   0.472E-03    0.228E-02
DAV:  27    -0.862929089411E+03    0.13693E-04   -0.18111E-05  1408   0.307E-03    0.232E-02
DAV:  28    -0.862928345670E+03    0.74374E-03   -0.29642E-03  1736   0.410E-02    0.410E-02
DAV:  29    -0.862928726074E+03   -0.38040E-03   -0.48008E-04  1664   0.195E-02    0.300E-02
DAV:  30    -0.862929007219E+03   -0.28115E-03   -0.16363E-04  1672   0.173E-02    0.211E-02
DAV:  31    -0.862929023835E+03   -0.16616E-04   -0.10950E-04  1568   0.781E-03    0.217E-02
DAV:  32    -0.862929025907E+03   -0.20722E-05   -0.33190E-04  1440   0.118E-02    0.225E-02
DAV:  33    -0.862929059951E+03   -0.34044E-04   -0.16247E-04  1320   0.826E-03    0.218E-02
DAV:  34    -0.862929084049E+03   -0.24098E-04   -0.27105E-05  1240   0.522E-03    0.204E-02
DAV:  35    -0.862929065647E+03    0.18402E-04   -0.16972E-05  1224   0.539E-03    0.210E-02
DAV:  36    -0.862929084033E+03   -0.18385E-04   -0.17823E-05  1208   0.351E-03    0.199E-02
DAV:  37    -0.862929090554E+03   -0.65213E-05   -0.28566E-04  1440   0.126E-02    0.203E-02
DAV:  38    -0.862929081781E+03    0.87727E-05   -0.46609E-04  1632   0.137E-02    0.220E-02
DAV:  39    -0.862929147535E+03   -0.65753E-04   -0.66706E-05  1368   0.849E-03    0.190E-02
DAV:  40    -0.862929162301E+03   -0.14766E-04   -0.10045E-04  1488   0.610E-03    0.184E-02
DAV:  41    -0.862929162661E+03   -0.35997E-06   -0.12926E-05  1248   0.632E-03
   4 F= -.86292916E+03 E0= -.86292916E+03  d E =-.308367E+00  mag=     0.0000
 BRION: g(F)=  0.123E+01 g(S)=  0.000E+00 retain N=  1 mean eig= 0.18
 eig:   0.181
 bond charge predicted
       N       E                     dE             d eps       ncg     rms          rms(c)
DAV:   1    -0.862983979645E+03   -0.54817E-01   -0.38574E+01  1712   0.880E+00    0.133E+00
DAV:   2    -0.863054028264E+03   -0.70049E-01   -0.10056E+00  2048   0.130E+00    0.826E-01
DAV:   3    -0.863056105603E+03   -0.20773E-02   -0.19587E-02  2040   0.273E-01    0.469E-01
DAV:   4    -0.863051696112E+03    0.44095E-02   -0.14969E-02  2144   0.267E-01    0.201E-01
DAV:   5    -0.863053065793E+03   -0.13697E-02   -0.38730E-03  2056   0.143E-01    0.107E-01
DAV:   6    -0.863053159821E+03   -0.94027E-04   -0.60754E-04  2080   0.514E-02    0.535E-02
DAV:   7    -0.863053159916E+03   -0.95046E-07   -0.17066E-04  2088   0.317E-02    0.341E-02
DAV:   8    -0.863053151963E+03    0.79532E-05   -0.73048E-05  1936   0.278E-02
   5 F= -.86305315E+03 E0= -.86305315E+03  d E =-.123989E+00  mag=     0.0000
 BRION: g(F)=  0.654E+00 g(S)=  0.000E+00 retain N=  2 mean eig= 0.51
 eig:   0.159  0.857
 bond charge predicted
       N       E                     dE             d eps       ncg     rms          rms(c)
DAV:   1    -0.863124546580E+03   -0.71387E-01   -0.92862E+00  1712   0.484E+00    0.585E-01
DAV:   2    -0.863138707472E+03   -0.14161E-01   -0.26659E-01  2096   0.806E-01    0.422E-01
DAV:   3    -0.863133993702E+03    0.47138E-02   -0.75442E-03  2064   0.203E-01    0.264E-01
DAV:   4    -0.863130504620E+03    0.34891E-02   -0.63329E-03  2248   0.220E-01    0.988E-02
DAV:   5    -0.863130642752E+03   -0.13813E-03   -0.33852E-03  2112   0.126E-01    0.583E-02
DAV:   6    -0.863130522699E+03    0.12005E-03   -0.57839E-04  2120   0.562E-02    0.361E-02
DAV:   7    -0.863130408404E+03    0.11430E-03   -0.46630E-05  2000   0.380E-02    0.227E-02
DAV:   8    -0.863130359869E+03    0.48535E-04   -0.64286E-05  1952   0.385E-02    0.146E-02
DAV:   9    -0.863130359977E+03   -0.10737E-06   -0.71322E-05  2024   0.281E-02
   6 F= -.86313036E+03 E0= -.86313036E+03  d E =-.772080E-01  mag=    -0.0000
 BRION: g(F)=  0.169E+00 g(S)=  0.000E+00 retain N=  2 mean eig= 0.96
 eig:   0.258  1.654
 bond charge predicted
       N       E                     dE             d eps       ncg     rms          rms(c)
DAV:   1    -0.863094292053E+03    0.36068E-01   -0.22365E+01  1712   0.690E+00    0.962E-01
DAV:   2    -0.863127627339E+03   -0.33335E-01   -0.50392E-01  2000   0.101E+00    0.571E-01
DAV:   3    -0.863128153451E+03   -0.52611E-03   -0.11430E-02  2088   0.245E-01    0.328E-01
DAV:   4    -0.863125299878E+03    0.28536E-02   -0.73096E-03  2048   0.210E-01    0.147E-01
DAV:   5    -0.863125687731E+03   -0.38785E-03   -0.26721E-03  2232   0.128E-01    0.819E-02
DAV:   6    -0.863125579219E+03    0.10851E-03   -0.53360E-04  2296   0.573E-02    0.430E-02
DAV:   7    -0.863125450934E+03    0.12828E-03   -0.87307E-05  2024   0.438E-02    0.262E-02
DAV:   8    -0.863125355205E+03    0.95730E-04   -0.10710E-04  2200   0.529E-02    0.172E-02
DAV:   9    -0.863125354999E+03    0.20531E-06   -0.10411E-04  1976   0.265E-02    0.118E-02
DAV:  10    -0.863125362816E+03   -0.78168E-05   -0.36331E-05  1432   0.239E-02
   7 F= -.86312536E+03 E0= -.86312536E+03  d E =0.499716E-02  mag=     0.0000
 BRION: g(F)=  0.456E+00 g(S)=  0.000E+00 retain N=  3 mean eig= 1.12
 eig:   2.870  0.261  0.233
 bond charge predicted
       N       E                     dE             d eps       ncg     rms          rms(c)
DAV:   1    -0.863171983181E+03   -0.46628E-01   -0.49356E+00  1712   0.353E+00    0.467E-01
DAV:   2    -0.863179256821E+03   -0.72736E-02   -0.14673E-01  2080   0.586E-01    0.314E-01
DAV:   3    -0.863177396138E+03    0.18607E-02   -0.50815E-03  2104   0.171E-01    0.191E-01
DAV:   4    -0.863175703222E+03    0.16929E-02   -0.25720E-03  2216   0.146E-01    0.748E-02
DAV:   5    -0.863175723028E+03   -0.19805E-04   -0.12528E-03  2056   0.906E-02    0.363E-02
DAV:   6    -0.863175635238E+03    0.87789E-04   -0.42003E-04  2176   0.550E-02    0.303E-02
DAV:   7    -0.863175585162E+03    0.50076E-04   -0.51424E-05  1856   0.255E-02    0.204E-02
DAV:   8    -0.863175535925E+03    0.49237E-04   -0.60107E-05  2000   0.395E-02    0.943E-03
DAV:   9    -0.863175544843E+03   -0.89176E-05   -0.56413E-05  1936   0.181E-02
   8 F= -.86317554E+03 E0= -.86317554E+03  d E =-.501820E-01  mag=     0.0000
 BRION: g(F)=  0.262E-01 g(S)=  0.000E+00 retain N=  1 mean eig= 0.22
 eig:   0.220
 bond charge predicted
       N       E                     dE             d eps       ncg     rms          rms(c)
DAV:   1    -0.863168622690E+03    0.69132E-02   -0.65095E+00  1712   0.366E+00    0.484E-01
DAV:   2    -0.863176106647E+03   -0.74840E-02   -0.12078E-01  2088   0.505E-01    0.262E-01
DAV:   3    -0.863177085432E+03   -0.97879E-03   -0.28429E-03  2112   0.120E-01    0.147E-01
DAV:   4    -0.863176693079E+03    0.39235E-03   -0.12231E-03  2304   0.902E-02    0.659E-02
DAV:   5    -0.863176862651E+03   -0.16957E-03   -0.47681E-04  1912   0.512E-02    0.336E-02
DAV:   6    -0.863176852724E+03    0.99263E-05   -0.93715E-05  2160   0.223E-02
   9 F= -.86317685E+03 E0= -.86317685E+03  d E =-.130788E-02  mag=     0.0000
 BRION: g(F)=  0.134E+00 g(S)=  0.000E+00 retain N=  2 mean eig= 0.22
 eig:   0.220  0.220
 bond charge predicted
       N       E                     dE             d eps       ncg     rms          rms(c)
DAV:   1    -0.863189863402E+03   -0.13001E-01   -0.17090E+00  1712   0.171E+00    0.334E-01
DAV:   2    -0.863192611254E+03   -0.27479E-02   -0.50934E-02  2120   0.296E-01    0.188E-01
DAV:   3    -0.863193018445E+03   -0.40719E-03   -0.14532E-03  1992   0.770E-02    0.100E-01
DAV:   4    -0.863192966093E+03    0.52351E-04   -0.56908E-04  2096   0.525E-02    0.447E-02
DAV:   5    -0.863193038197E+03   -0.72103E-04   -0.15561E-04  1888   0.311E-02    0.245E-02
DAV:   6    -0.863193042921E+03   -0.47241E-05   -0.30429E-05  1656   0.123E-02
  10 F= -.86319304E+03 E0= -.86319304E+03  d E =-.161902E-01  mag=     0.0000
 BRION: g(F)=  0.133E-01 g(S)=  0.000E+00 retain N=  1 mean eig= 0.22
 eig:   0.215
 bond charge predicted
       N       E                     dE             d eps       ncg     rms          rms(c)
DAV:   1    -0.863199827772E+03   -0.67896E-02   -0.34224E+00  1712   0.253E+00    0.277E-01
DAV:   2    -0.863202924997E+03   -0.30972E-02   -0.39471E-02  2000   0.308E-01    0.152E-01
DAV:   3    -0.863203234995E+03   -0.31000E-03   -0.80216E-04  1888   0.625E-02    0.855E-02
DAV:   4    -0.863203166239E+03    0.68756E-04   -0.44412E-04  2008   0.406E-02    0.421E-02
DAV:   5    -0.863203188538E+03   -0.22299E-04   -0.97778E-05  1928   0.223E-02    0.250E-02
DAV:   6    -0.863203190614E+03   -0.20761E-05   -0.29173E-05  1496   0.126E-02
  11 F= -.86320319E+03 E0= -.86320319E+03  d E =-.101477E-01  mag=     0.0000
 BRION: g(F)=  0.162E-01 g(S)=  0.000E+00 retain N=  2 mean eig= 0.07
 eig:   0.120  0.018
 bond charge predicted
       N       E                     dE             d eps       ncg     rms          rms(c)
DAV:   1    -0.863206910411E+03   -0.37219E-02   -0.55217E-01  1712   0.108E+00    0.130E-01
DAV:   2    -0.863207567109E+03   -0.65670E-03   -0.91105E-03  2064   0.148E-01    0.797E-02
DAV:   3    -0.863207564173E+03    0.29359E-05   -0.18690E-04  1960   0.294E-02    0.468E-02
DAV:   4    -0.863207523846E+03    0.40328E-04   -0.15393E-04  2024   0.257E-02    0.219E-02
DAV:   5    -0.863207529264E+03   -0.54185E-05   -0.43311E-05  1856   0.153E-02
  12 F= -.86320753E+03 E0= -.86320753E+03  d E =-.433865E-02  mag=     0.0000
 BRION: g(F)=  0.107E-01 g(S)=  0.000E+00 retain N=  1 mean eig= 0.26
 eig:   0.261
 bond charge predicted
       N       E                     dE             d eps       ncg     rms          rms(c)
DAV:   1    -0.863213547596E+03   -0.60237E-02   -0.23403E+00  1712   0.207E+00    0.218E-01
DAV:   2    -0.863215462695E+03   -0.19151E-02   -0.24158E-02  1936   0.245E-01    0.118E-01
DAV:   3    -0.863215626420E+03   -0.16372E-03   -0.52483E-04  1888   0.487E-02    0.643E-02
DAV:   4    -0.863215587081E+03    0.39339E-04   -0.19760E-04  2080   0.270E-02    0.344E-02
DAV:   5    -0.863215596441E+03   -0.93604E-05   -0.72662E-05  1848   0.187E-02
  13 F= -.86321560E+03 E0= -.86321560E+03  d E =-.806718E-02  mag=     0.0000
 BRION: g(F)=  0.982E-02 g(S)=  0.000E+00 retain N=  2 mean eig= 0.55
 eig:   0.167  0.936
 bond charge predicted
       N       E                     dE             d eps       ncg     rms          rms(c)
DAV:   1    -0.863219389957E+03   -0.38029E-02   -0.79867E-01  1712   0.123E+00    0.132E-01
DAV:   2    -0.863220066837E+03   -0.67688E-03   -0.89683E-03  2008   0.153E-01    0.756E-02
DAV:   3    -0.863220071876E+03   -0.50386E-05   -0.21502E-04  1960   0.336E-02    0.437E-02
DAV:   4    -0.863220037512E+03    0.34364E-04   -0.12755E-04  2064   0.255E-02    0.220E-02
DAV:   5    -0.863220040471E+03   -0.29586E-05   -0.47865E-05  1800   0.165E-02
  14 F= -.86322004E+03 E0= -.86322004E+03  d E =-.444403E-02  mag=     0.0000
 BRION: g(F)=  0.934E-02 g(S)=  0.000E+00 retain N=  2 mean eig= 1.18
 eig:   0.178  2.173
 bond charge predicted
       N       E                     dE             d eps       ncg     rms          rms(c)
DAV:   1    -0.863225166889E+03   -0.51294E-02   -0.21841E+00  1712   0.198E+00    0.215E-01
DAV:   2    -0.863226935488E+03   -0.17686E-02   -0.22184E-02  2016   0.234E-01    0.118E-01
DAV:   3    -0.863227056673E+03   -0.12119E-03   -0.49855E-04  1952   0.454E-02    0.635E-02
DAV:   4    -0.863227019231E+03    0.37442E-04   -0.19354E-04  2024   0.269E-02    0.349E-02
DAV:   5    -0.863227029031E+03   -0.98000E-05   -0.68344E-05  1880   0.188E-02
  15 F= -.86322703E+03 E0= -.86322703E+03  d E =-.698856E-02  mag=    -0.0000
 BRION: g(F)=  0.104E-01 g(S)=  0.000E+00 retain N=  2 mean eig= 0.11
 eig:   0.105  0.105
 bond charge predicted
       N       E                     dE             d eps       ncg     rms          rms(c)
DAV:   1    -0.863228190681E+03   -0.11714E-02   -0.14239E-01  1720   0.523E-01    0.807E-02
DAV:   2    -0.863228386442E+03   -0.19576E-03   -0.31637E-03  2040   0.743E-02    0.435E-02
DAV:   3    -0.863228408964E+03   -0.22522E-04   -0.86881E-05  1912   0.194E-02    0.239E-02
DAV:   4    -0.863228400688E+03    0.82755E-05   -0.42310E-05  1840   0.126E-02
  16 F= -.86322840E+03 E0= -.86322840E+03  d E =-.137166E-02  mag=    -0.0000
 BRION: g(F)=  0.810E-02 g(S)=  0.000E+00 retain N=  2 mean eig= 1.73
 eig:   0.266  3.191
 bond charge predicted
       N       E                     dE             d eps       ncg     rms          rms(c)
DAV:   1    -0.863232950885E+03   -0.45419E-02   -0.17031E+00  1712   0.173E+00    0.189E-01
DAV:   2    -0.863234303565E+03   -0.13527E-02   -0.16729E-02  1992   0.202E-01    0.104E-01
DAV:   3    -0.863234410212E+03   -0.10665E-03   -0.36617E-04  1944   0.392E-02    0.545E-02
DAV:   4    -0.863234387393E+03    0.22819E-04   -0.14080E-04  1992   0.236E-02    0.302E-02
DAV:   5    -0.863234395007E+03   -0.76141E-05   -0.52538E-05  1784   0.163E-02
  17 F= -.86323440E+03 E0= -.86323440E+03  d E =-.599432E-02  mag=    -0.0000
 BRION: g(F)=  0.743E-02 g(S)=  0.000E+00 retain N=  2 mean eig= 0.43
 eig:   0.158  0.710
 bond charge predicted
       N       E                     dE             d eps       ncg     rms          rms(c)
DAV:   1    -0.863236998487E+03   -0.26111E-02   -0.45149E-01  1712   0.899E-01    0.994E-02
DAV:   2    -0.863237353358E+03   -0.35487E-03   -0.47379E-03  2024   0.109E-01    0.542E-02
DAV:   3    -0.863237374471E+03   -0.21114E-04   -0.12398E-04  1896   0.238E-02    0.303E-02
DAV:   4    -0.863237358824E+03    0.15648E-04   -0.50589E-05  1960   0.156E-02    0.166E-02
DAV:   5    -0.863237359679E+03   -0.85472E-06   -0.25427E-05  1432   0.117E-02
  18 F= -.86323736E+03 E0= -.86323736E+03  d E =-.296467E-02  mag=    -0.0000
 BRION: g(F)=  0.695E-02 g(S)=  0.000E+00 retain N=  2 mean eig= 2.10
 eig:   0.236  3.965
 bond charge predicted
       N       E                     dE             d eps       ncg     rms          rms(c)
DAV:   1    -0.863242459039E+03   -0.51002E-02   -0.33859E+00  1712   0.242E+00    0.256E-01
DAV:   2    -0.863244981249E+03   -0.25222E-02   -0.30895E-02  1936   0.274E-01    0.142E-01
DAV:   3    -0.863245165176E+03   -0.18393E-03   -0.69036E-04  1872   0.522E-02    0.742E-02
DAV:   4    -0.863245129624E+03    0.35552E-04   -0.24629E-04  2024   0.299E-02    0.413E-02
DAV:   5    -0.863245141650E+03   -0.12026E-04   -0.90312E-05  1848   0.204E-02    0.237E-02
DAV:   6    -0.863245145708E+03   -0.40578E-05   -0.20784E-05  1520   0.949E-03
  19 F= -.86324515E+03 E0= -.86324515E+03  d E =-.778603E-02  mag=    -0.0000
 BRION: g(F)=  0.742E-02 g(S)=  0.000E+00 retain N=  2 mean eig= 0.17
 eig:   0.170  0.170
 bond charge predicted
       N       E                     dE             d eps       ncg     rms          rms(c)
DAV:   1    -0.863243763996E+03    0.13777E-02   -0.15961E-01  1712   0.561E-01    0.720E-02
DAV:   2    -0.863243950526E+03   -0.18653E-03   -0.27944E-03  2048   0.759E-02    0.412E-02
DAV:   3    -0.863243951289E+03   -0.76361E-06   -0.76278E-05  1896   0.191E-02
  20 F= -.86324395E+03 E0= -.86324395E+03  d E =0.119442E-02  mag=    -0.0000
 BRION: g(F)=  0.683E-02 g(S)=  0.000E+00 retain N=  2 mean eig= 0.64
 eig:   0.081  1.198
 bond charge predicted
       N       E                     dE             d eps       ncg     rms          rms(c)
DAV:   1    -0.863248303226E+03   -0.43527E-02   -0.23635E+00  1712   0.201E+00    0.215E-01
DAV:   2    -0.863250106542E+03   -0.18033E-02   -0.21965E-02  1952   0.226E-01    0.117E-01
DAV:   3    -0.863250303862E+03   -0.19732E-03   -0.46559E-04  1856   0.423E-02    0.600E-02
DAV:   4    -0.863250281661E+03    0.22201E-04   -0.16128E-04  2064   0.239E-02    0.338E-02
DAV:   5    -0.863250287346E+03   -0.56850E-05   -0.54134E-05  1744   0.157E-02
  21 F= -.86325029E+03 E0= -.86325029E+03  d E =-.633606E-02  mag=    -0.0000
 BRION: g(F)=  0.651E-02 g(S)=  0.000E+00 retain N=  2 mean eig= 0.51
 eig:   0.188  0.826
 bond charge predicted
       N       E                     dE             d eps       ncg     rms          rms(c)
DAV:   1    -0.863251639014E+03   -0.13574E-02   -0.15048E-01  1728   0.527E-01    0.712E-02
DAV:   2    -0.863251777697E+03   -0.13868E-03   -0.21188E-03  2040   0.706E-02    0.383E-02
DAV:   3    -0.863251789392E+03   -0.11695E-04   -0.60486E-05  1840   0.163E-02    0.212E-02
DAV:   4    -0.863251785666E+03    0.37255E-05   -0.28362E-05  1576   0.115E-02
  22 F= -.86325179E+03 E0= -.86325179E+03  d E =-.149832E-02  mag=    -0.0000
 BRION: g(F)=  0.561E-02 g(S)=  0.000E+00 retain N=  2 mean eig= 2.74
 eig:   0.088  5.393
 bond charge predicted
       N       E                     dE             d eps       ncg     rms          rms(c)
DAV:   1    -0.863256424142E+03   -0.46347E-02   -0.49905E+00  1712   0.290E+00    0.319E-01
DAV:   2    -0.863260161722E+03   -0.37376E-02   -0.44628E-02  1904   0.324E-01    0.178E-01
DAV:   3    -0.863260461431E+03   -0.29971E-03   -0.99589E-04  1864   0.607E-02    0.907E-02
DAV:   4    -0.863260426606E+03    0.34825E-04   -0.34664E-04  2008   0.340E-02    0.516E-02
DAV:   5    -0.863260442535E+03   -0.15929E-04   -0.11350E-04  1848   0.229E-02    0.282E-02
DAV:   6    -0.863260448970E+03   -0.64355E-05   -0.27580E-05  1544   0.106E-02
  23 F= -.86326045E+03 E0= -.86326045E+03  d E =-.866330E-02  mag=    -0.0000
 BRION: g(F)=  0.578E-02 g(S)=  0.000E+00 retain N=  2 mean eig= 0.39
 eig:   0.390  0.390
 bond charge predicted
       N       E                     dE             d eps       ncg     rms          rms(c)
DAV:   1    -0.863257738845E+03    0.27037E-02   -0.40026E-01  1712   0.853E-01    0.107E-01
DAV:   2    -0.863258089933E+03   -0.35109E-03   -0.52598E-03  2064   0.111E-01    0.608E-02
DAV:   3    -0.863258133524E+03   -0.43590E-04   -0.13147E-04  1936   0.235E-02    0.330E-02
DAV:   4    -0.863258123891E+03    0.96332E-05   -0.60506E-05  1936   0.159E-02
  24 F= -.86325812E+03 E0= -.86325812E+03  d E =0.232508E-02  mag=    -0.0000
 BRION: g(F)=  0.706E-02 g(S)=  0.000E+00 retain N=  2 mean eig= 1.01
 eig:   0.628  1.389
 bond charge predicted
       N       E                     dE             d eps       ncg     rms          rms(c)
DAV:   1    -0.863262373651E+03   -0.42401E-02   -0.53496E+00  1712   0.300E+00    0.340E-01
DAV:   2    -0.863266450519E+03   -0.40769E-02   -0.49303E-02  1992   0.340E-01    0.187E-01
DAV:   3    -0.863266835848E+03   -0.38533E-03   -0.11214E-03  1880   0.637E-02    0.935E-02
DAV:   4    -0.863266795277E+03    0.40572E-04   -0.37809E-04  2032   0.363E-02    0.537E-02
DAV:   5    -0.863266806486E+03   -0.11209E-04   -0.11185E-04  1872   0.238E-02    0.280E-02
DAV:   6    -0.863266813953E+03   -0.74678E-05   -0.27607E-05  1536   0.105E-02
  25 F= -.86326681E+03 E0= -.86326681E+03  d E =-.869006E-02  mag=    -0.0000
 BRION: g(F)=  0.637E-02 g(S)=  0.000E+00 retain N=  2 mean eig= 0.48
 eig:   0.269  0.686
 bond charge predicted
       N       E                     dE             d eps       ncg     rms          rms(c)
DAV:   1    -0.863265371806E+03    0.14347E-02   -0.19394E-01  1712   0.607E-01    0.754E-02
DAV:   2    -0.863265552924E+03   -0.18112E-03   -0.27582E-03  2064   0.822E-02    0.435E-02
DAV:   3    -0.863265562970E+03   -0.10046E-04   -0.75822E-05  1944   0.189E-02    0.245E-02
DAV:   4    -0.863265551601E+03    0.11369E-04   -0.35263E-05  1768   0.137E-02    0.123E-02
DAV:   5    -0.863265553080E+03   -0.14794E-05   -0.16218E-05  1488   0.999E-03
  26 F= -.86326555E+03 E0= -.86326555E+03  d E =0.126087E-02  mag=    -0.0000
 BRION: g(F)=  0.501E-02 g(S)=  0.000E+00 retain N=  2 mean eig= 1.26
 eig:   0.359  2.170
 bond charge predicted
       N       E                     dE             d eps       ncg     rms          rms(c)
DAV:   1    -0.863269019172E+03   -0.34676E-02   -0.26663E+00  1728   0.213E+00    0.246E-01
DAV:   2    -0.863271083899E+03   -0.20647E-02   -0.25265E-02  1968   0.244E-01    0.136E-01
DAV:   3    -0.863271293149E+03   -0.20925E-03   -0.59316E-04  1928   0.474E-02    0.682E-02
DAV:   4    -0.863271262368E+03    0.30781E-04   -0.19890E-04  2008   0.266E-02    0.388E-02
DAV:   5    -0.863271268291E+03   -0.59229E-05   -0.64418E-05  1872   0.186E-02
  27 F= -.86327127E+03 E0= -.86327127E+03  d E =-.571521E-02  mag=    -0.0000
 BRION: g(F)=  0.606E-02 g(S)=  0.000E+00 retain N=  3 mean eig= 0.97
 eig:   2.280  0.509  0.134
 bond charge predicted
       N       E                     dE             d eps       ncg     rms          rms(c)
DAV:   1    -0.863273166776E+03   -0.19044E-02   -0.35979E-01  1712   0.795E-01    0.941E-02
DAV:   2    -0.863273456550E+03   -0.28977E-03   -0.38686E-03  2024   0.951E-02    0.504E-02
DAV:   3    -0.863273480199E+03   -0.23650E-04   -0.95018E-05  1888   0.207E-02    0.276E-02
DAV:   4    -0.863273468701E+03    0.11498E-04   -0.40550E-05  1904   0.149E-02    0.144E-02
DAV:   5    -0.863273469832E+03   -0.11304E-05   -0.16549E-05  1368   0.960E-03
  28 F= -.86327347E+03 E0= -.86327347E+03  d E =-.220154E-02  mag=    -0.0000
 BRION: g(F)=  0.455E-02 g(S)=  0.000E+00 retain N=  1 mean eig= 0.19
 eig:   0.192
 bond charge predicted
       N       E                     dE             d eps       ncg     rms          rms(c)
DAV:   1    -0.863275473855E+03   -0.20052E-02   -0.95924E-01  1712   0.128E+00    0.168E-01
DAV:   2    -0.863276264002E+03   -0.79015E-03   -0.10679E-02  2064   0.154E-01    0.908E-02
DAV:   3    -0.863276382662E+03   -0.11866E-03   -0.25591E-04  1928   0.320E-02    0.463E-02
DAV:   4    -0.863276373434E+03    0.92277E-05   -0.10350E-04  1968   0.204E-02    0.262E-02
DAV:   5    -0.863276377042E+03   -0.36078E-05   -0.28132E-05  1488   0.136E-02
  29 F= -.86327638E+03 E0= -.86327638E+03  d E =-.290721E-02  mag=    -0.0000
 BRION: g(F)=  0.820E-02 g(S)=  0.000E+00 retain N=  2 mean eig= 0.19
 eig:   0.192  0.192
 bond charge predicted
       N       E                     dE             d eps       ncg     rms          rms(c)
DAV:   1    -0.863277609178E+03   -0.12357E-02   -0.11981E-01  1720   0.486E-01    0.669E-02
DAV:   2    -0.863277742656E+03   -0.13348E-03   -0.21527E-03  2048   0.672E-02    0.364E-02
DAV:   3    -0.863277746503E+03   -0.38472E-05   -0.62724E-05  1888   0.171E-02
  30 F= -.86327775E+03 E0= -.86327775E+03  d E =-.136946E-02  mag=     0.0000
 BRION: g(F)=  0.375E-02 g(S)=  0.000E+00 retain N=  1 mean eig= 0.20
 eig:   0.198
 bond charge predicted
       N       E                     dE             d eps       ncg     rms          rms(c)
DAV:   1    -0.863280397340E+03   -0.26547E-02   -0.11652E+00  1712   0.140E+00    0.166E-01
DAV:   2    -0.863281278525E+03   -0.88119E-03   -0.10674E-02  1880   0.157E-01    0.912E-02
DAV:   3    -0.863281384819E+03   -0.10629E-03   -0.25375E-04  1856   0.307E-02    0.454E-02
DAV:   4    -0.863281378209E+03    0.66096E-05   -0.81913E-05  1944   0.167E-02
  31 F= -.86328138E+03 E0= -.86328138E+03  d E =-.363171E-02  mag=     0.0000
 BRION: g(F)=  0.376E-02 g(S)=  0.000E+00 retain N=  2 mean eig= 0.39
 eig:   0.200  0.580
 bond charge predicted
       N       E                     dE             d eps       ncg     rms          rms(c)
DAV:   1    -0.863282827187E+03   -0.14424E-02   -0.26163E-01  1712   0.658E-01    0.843E-02
DAV:   2    -0.863283033897E+03   -0.20671E-03   -0.24963E-03  1952   0.748E-02    0.458E-02
DAV:   3    -0.863283062627E+03   -0.28730E-04   -0.61698E-05  1688   0.167E-02    0.242E-02
DAV:   4    -0.863283058273E+03    0.43539E-05   -0.21829E-05  1584   0.100E-02
  32 F= -.86328306E+03 E0= -.86328306E+03  d E =-.168006E-02  mag=     0.0000
 BRION: g(F)=  0.382E-02 g(S)=  0.000E+00 retain N=  1 mean eig= 0.18
 eig:   0.179
 bond charge predicted
       N       E                     dE             d eps       ncg     rms          rms(c)
DAV:   1    -0.863285123194E+03   -0.20606E-02   -0.62187E-01  1712   0.101E+00    0.128E-01
DAV:   2    -0.863285606649E+03   -0.48345E-03   -0.58579E-03  1936   0.114E-01    0.687E-02
DAV:   3    -0.863285682030E+03   -0.75382E-04   -0.13726E-04  1712   0.231E-02    0.340E-02
DAV:   4    -0.863285682573E+03   -0.54258E-06   -0.44499E-05  1728   0.122E-02
  33 F= -.86328568E+03 E0= -.86328568E+03  d E =-.262430E-02  mag=    -0.0000
 BRION: g(F)=  0.349E-02 g(S)=  0.000E+00 retain N=  2 mean eig= 1.32
 eig:   0.030  2.619
 bond charge predicted
       N       E                     dE             d eps       ncg     rms          rms(c)
DAV:   1    -0.863287558542E+03   -0.18765E-02   -0.55331E-01  1712   0.954E-01    0.119E-01
DAV:   2    -0.863287991889E+03   -0.43335E-03   -0.51598E-03  1944   0.106E-01    0.640E-02
DAV:   3    -0.863288055156E+03   -0.63267E-04   -0.12021E-04  1720   0.220E-02    0.326E-02
DAV:   4    -0.863288050830E+03    0.43254E-05   -0.38645E-05  1736   0.120E-02
  34 F= -.86328805E+03 E0= -.86328805E+03  d E =-.236826E-02  mag=    -0.0000
 BRION: g(F)=  0.380E-02 g(S)=  0.000E+00 retain N=  2 mean eig= 1.05
 eig:   0.335  1.771
 bond charge predicted
       N       E                     dE             d eps       ncg     rms          rms(c)
DAV:   1    -0.863290025866E+03   -0.19707E-02   -0.60846E-01  1712   0.100E+00    0.129E-01
DAV:   2    -0.863290502989E+03   -0.47712E-03   -0.57990E-03  1904   0.114E-01    0.695E-02
DAV:   3    -0.863290575727E+03   -0.72737E-04   -0.13946E-04  1768   0.238E-02    0.349E-02
DAV:   4    -0.863290573339E+03    0.23880E-05   -0.46516E-05  1808   0.132E-02
  35 F= -.86329057E+03 E0= -.86329057E+03  d E =-.252251E-02  mag=    -0.0000
 BRION: g(F)=  0.351E-02 g(S)=  0.000E+00 retain N=  2 mean eig= 0.97
 eig:   0.089  1.842
 bond charge predicted
       N       E                     dE             d eps       ncg     rms          rms(c)
DAV:   1    -0.863291088026E+03   -0.51230E-03   -0.39981E-02  1728   0.283E-01    0.411E-02
DAV:   2    -0.863291128346E+03   -0.40320E-04   -0.63308E-04  2064   0.396E-02    0.230E-02
DAV:   3    -0.863291132369E+03   -0.40233E-05   -0.18772E-05  1416   0.104E-02
  36 F= -.86329113E+03 E0= -.86329113E+03  d E =-.559030E-03  mag=    -0.0000
 BRION: g(F)=  0.343E-02 g(S)=  0.000E+00 retain N=  2 mean eig= 0.32
 eig:   0.315  0.315
 bond charge predicted
       N       E                     dE             d eps       ncg     rms          rms(c)
DAV:   1    -0.863293201688E+03   -0.20733E-02   -0.72765E-01  1712   0.109E+00    0.136E-01
DAV:   2    -0.863293773017E+03   -0.57133E-03   -0.67691E-03  1872   0.121E-01    0.737E-02
DAV:   3    -0.863293851185E+03   -0.78168E-04   -0.15829E-04  1720   0.241E-02    0.364E-02
DAV:   4    -0.863293847418E+03    0.37671E-05   -0.51220E-05  1864   0.134E-02
  37 F= -.86329385E+03 E0= -.86329385E+03  d E =-.271505E-02  mag=    -0.0000
 BRION: g(F)=  0.321E-02 g(S)=  0.000E+00 retain N=  2 mean eig= 1.21
 eig:   0.226  2.201
 bond charge predicted
       N       E                     dE             d eps       ncg     rms          rms(c)
DAV:   1    -0.863295281231E+03   -0.14300E-02   -0.31295E-01  1712   0.716E-01    0.983E-02
DAV:   2    -0.863295531024E+03   -0.24979E-03   -0.30753E-03  2008   0.817E-02    0.524E-02
DAV:   3    -0.863295578883E+03   -0.47859E-04   -0.75862E-05  1592   0.176E-02    0.262E-02
DAV:   4    -0.863295579670E+03   -0.78698E-06   -0.24298E-05  1520   0.923E-03
  38 F= -.86329558E+03 E0= -.86329558E+03  d E =-.173225E-02  mag=    -0.0000
 BRION: g(F)=  0.328E-02 g(S)=  0.000E+00 retain N=  2 mean eig= 0.91
 eig:   0.049  1.773
 bond charge predicted
       N       E                     dE             d eps       ncg     rms          rms(c)
DAV:   1    -0.863297532839E+03   -0.19540E-02   -0.69225E-01  1712   0.106E+00    0.137E-01
DAV:   2    -0.863298076638E+03   -0.54380E-03   -0.64894E-03  1816   0.119E-01    0.737E-02
DAV:   3    -0.863298166356E+03   -0.89719E-04   -0.15555E-04  1712   0.246E-02    0.365E-02
DAV:   4    -0.863298164105E+03    0.22518E-05   -0.48865E-05  1784   0.132E-02
  39 F= -.86329816E+03 E0= -.86329816E+03  d E =-.258443E-02  mag=    -0.0000
 BRION: g(F)=  0.306E-02 g(S)=  0.000E+00 retain N=  2 mean eig= 0.70
 eig:   0.120  1.281
 bond charge predicted
       N       E                     dE             d eps       ncg     rms          rms(c)
DAV:   1    -0.863299411689E+03   -0.12453E-02   -0.25562E-01  1712   0.652E-01    0.866E-02
DAV:   2    -0.863299624747E+03   -0.21306E-03   -0.25623E-03  1952   0.751E-02    0.466E-02
DAV:   3    -0.863299655864E+03   -0.31118E-04   -0.62526E-05  1632   0.167E-02    0.242E-02
DAV:   4    -0.863299650791E+03    0.50727E-05   -0.21107E-05  1576   0.101E-02
  40 F= -.86329965E+03 E0= -.86329965E+03  d E =-.148669E-02  mag=    -0.0000
 BRION: g(F)=  0.342E-02 g(S)=  0.000E+00 retain N=  2 mean eig= 0.50
 eig:   0.414  0.596
 bond charge predicted
       N       E                     dE             d eps       ncg     rms          rms(c)
DAV:   1    -0.863301725097E+03   -0.20692E-02   -0.96663E-01  1728   0.126E+00    0.169E-01
DAV:   2    -0.863302491032E+03   -0.76594E-03   -0.94136E-03  1936   0.141E-01    0.901E-02
DAV:   3    -0.863302640268E+03   -0.14924E-03   -0.22892E-04  1776   0.294E-02    0.438E-02
DAV:   4    -0.863302643129E+03   -0.28613E-05   -0.72805E-05  1824   0.151E-02
  41 F= -.86330264E+03 E0= -.86330264E+03  d E =-.299234E-02  mag=    -0.0000
 BRION: g(F)=  0.321E-02 g(S)=  0.000E+00 retain N=  2 mean eig= 0.77
 eig:   0.032  1.508
 bond charge predicted
       N       E                     dE             d eps       ncg     rms          rms(c)
DAV:   1    -0.863302189475E+03    0.45079E-03   -0.31685E-02  1728   0.232E-01    0.397E-02
DAV:   2    -0.863302223697E+03   -0.34221E-04   -0.56952E-04  2048   0.332E-02    0.207E-02
DAV:   3    -0.863302230863E+03   -0.71668E-05   -0.19726E-05  1408   0.846E-03
  42 F= -.86330223E+03 E0= -.86330223E+03  d E =0.412266E-03  mag=    -0.0000
 BRION: g(F)=  0.303E-02 g(S)=  0.000E+00 retain N=  2 mean eig= 1.13
 eig:   0.369  1.897
 bond charge predicted
       N       E                     dE             d eps       ncg     rms          rms(c)
DAV:   1    -0.863304394912E+03   -0.21712E-02   -0.12055E+00  1712   0.140E+00    0.182E-01
DAV:   2    -0.863305354850E+03   -0.95994E-03   -0.11486E-02  1792   0.157E-01    0.966E-02
DAV:   3    -0.863305534779E+03   -0.17993E-03   -0.26676E-04  1768   0.316E-02    0.462E-02
DAV:   4    -0.863305533065E+03    0.17136E-05   -0.81195E-05  1896   0.162E-02
  43 F= -.86330553E+03 E0= -.86330553E+03  d E =-.330220E-02  mag=     0.0000
 BRION: g(F)=  0.280E-02 g(S)=  0.000E+00 retain N=  3 mean eig= 3.02
 eig:   7.752  0.265  1.035
 bond charge predicted
       N       E                     dE             d eps       ncg     rms          rms(c)
DAV:   1    -0.863295141551E+03    0.10393E-01   -0.26629E+01  1728   0.654E+00    0.865E-01
DAV:   2    -0.863315629952E+03   -0.20488E-01   -0.25180E-01  1824   0.729E-01    0.471E-01
DAV:   3    -0.863319657100E+03   -0.40271E-02   -0.62461E-03  1840   0.159E-01    0.226E-01
DAV:   4    -0.863319637328E+03    0.19772E-04   -0.19856E-03  2072   0.770E-02    0.132E-01
DAV:   5    -0.863319728940E+03   -0.91613E-04   -0.54802E-04  1896   0.513E-02    0.697E-02
DAV:   6    -0.863319771624E+03   -0.42684E-04   -0.15823E-04  1864   0.263E-02    0.255E-02
DAV:   7    -0.863319777518E+03   -0.58944E-05   -0.42150E-05  1680   0.107E-02
  44 F= -.86331978E+03 E0= -.86331978E+03  d E =-.142445E-01  mag=     0.0000
 BRION: g(F)=  0.533E-02 g(S)=  0.000E+00 retain N=  3 mean eig= 1.09
 eig:   0.206  1.528  1.528
 bond charge predicted
       N       E                     dE             d eps       ncg     rms          rms(c)
DAV:   1    -0.863312154261E+03    0.76174E-02   -0.32086E+00  1712   0.228E+00    0.293E-01
DAV:   2    -0.863314470242E+03   -0.23160E-02   -0.30729E-02  1880   0.265E-01    0.160E-01
DAV:   3    -0.863315013459E+03   -0.54322E-03   -0.78402E-04  1880   0.554E-02    0.792E-02
DAV:   4    -0.863314978221E+03    0.35237E-04   -0.26576E-04  2072   0.322E-02    0.450E-02
DAV:   5    -0.863314980073E+03   -0.18515E-05   -0.88843E-05  2080   0.229E-02
  45 F= -.86331498E+03 E0= -.86331498E+03  d E =0.479745E-02  mag=     0.0000
 BRION: g(F)=  0.539E-02 g(S)=  0.000E+00 retain N=  4 mean eig= 1.97
 eig:   3.473  3.473  0.242  0.681
 bond charge predicted
       N       E                     dE             d eps       ncg     rms          rms(c)
DAV:   1    -0.862945327244E+03    0.36965E+00   -0.36964E+02  1712   0.243E+01    0.316E+00
DAV:   2    -0.863323781721E+03   -0.37845E+00   -0.43952E+00  1808   0.312E+00    0.176E+00
DAV:   3    -0.863361055192E+03   -0.37273E-01   -0.90830E-02  2040   0.675E-01    0.868E-01
DAV:   4    -0.863357201596E+03    0.38536E-02   -0.29828E-02  2048   0.295E-01    0.500E-01
DAV:   5    -0.863358489941E+03   -0.12883E-02   -0.80934E-03  1952   0.188E-01    0.271E-01
DAV:   6    -0.863358967013E+03   -0.47707E-03   -0.22449E-03  1928   0.103E-01    0.104E-01
DAV:   7    -0.863358987969E+03   -0.20956E-04   -0.76298E-04  2072   0.517E-02    0.750E-02
DAV:   8    -0.863359007876E+03   -0.19907E-04   -0.17501E-04  2144   0.274E-02    0.299E-02
DAV:   9    -0.863359040712E+03   -0.32837E-04   -0.35712E-05  1608   0.169E-02    0.138E-02
DAV:  10    -0.863359076405E+03   -0.35693E-04   -0.27845E-05  1688   0.108E-02    0.836E-03
DAV:  11    -0.863359087713E+03   -0.11308E-04   -0.62179E-06  1536   0.554E-03    0.706E-03
DAV:  12    -0.863359107346E+03   -0.19632E-04   -0.96807E-06  1424   0.762E-03    0.622E-03
DAV:  13    -0.863359121160E+03   -0.13814E-04   -0.11090E-05  1520   0.599E-03    0.624E-03
DAV:  14    -0.863359125828E+03   -0.46689E-05   -0.34284E-06  1520   0.455E-03
  46 F= -.86335913E+03 E0= -.86335913E+03  d E =-.441458E-01  mag=     0.0000
 BRION: g(F)=  0.476E-02 g(S)=  0.000E+00 retain N=  2 mean eig= 0.74
 eig:   0.634  0.839
 bond charge predicted
       N       E                     dE             d eps       ncg     rms          rms(c)
DAV:   1    -0.863263405558E+03    0.95716E-01   -0.78614E+01  1712   0.111E+01    0.147E+00
DAV:   2    -0.863329315008E+03   -0.65909E-01   -0.80410E-01  1880   0.139E+00    0.790E-01
DAV:   3    -0.863340127755E+03   -0.10813E-01   -0.19419E-02  1832   0.278E-01    0.384E-01
DAV:   4    -0.863339655844E+03    0.47191E-03   -0.62823E-03  2192   0.146E-01    0.226E-01
DAV:   5    -0.863339988183E+03   -0.33234E-03   -0.15497E-03  2144   0.885E-02    0.113E-01
DAV:   6    -0.863340192377E+03   -0.20419E-03   -0.45633E-04  1960   0.420E-02    0.423E-02
DAV:   7    -0.863340250145E+03   -0.57767E-04   -0.10932E-04  1888   0.173E-02    0.319E-02
DAV:   8    -0.863340331096E+03   -0.80952E-04   -0.27767E-05  1656   0.984E-03    0.129E-02
DAV:   9    -0.863340405009E+03   -0.73912E-04   -0.14356E-05  1544   0.885E-03    0.487E-03
DAV:  10    -0.863340464521E+03   -0.59512E-04   -0.10322E-05  1488   0.505E-03    0.395E-03
DAV:  11    -0.863340487879E+03   -0.23358E-04   -0.33175E-06  1432   0.271E-03    0.332E-03
DAV:  12    -0.863340505316E+03   -0.17437E-04   -0.50711E-06  1416   0.360E-03    0.245E-03
DAV:  13    -0.863340508433E+03   -0.31171E-05   -0.23315E-06  1432   0.244E-03
  47 F= -.86334051E+03 E0= -.86334051E+03  d E =0.186174E-01  mag=     0.0000
 BRION: g(F)=  0.613E-02 g(S)=  0.000E+00 retain N=  3 mean eig= 0.30
 eig:   0.381  0.433  0.088
 bond charge predicted
       N       E                     dE             d eps       ncg     rms          rms(c)
DAV:   1    -0.863342135659E+03   -0.16303E-02   -0.28623E+00  1712   0.215E+00    0.287E-01
DAV:   2    -0.863344372142E+03   -0.22365E-02   -0.28103E-02  1888   0.241E-01    0.154E-01
DAV:   3    -0.863344853570E+03   -0.48143E-03   -0.67563E-04  1864   0.503E-02    0.752E-02
DAV:   4    -0.863344845826E+03    0.77438E-05   -0.23106E-04  2024   0.278E-02    0.436E-02
DAV:   5    -0.863344853150E+03   -0.73237E-05   -0.64532E-05  1872   0.173E-02
  48 F= -.86334485E+03 E0= -.86334485E+03  d E =-.434472E-02  mag=    -0.0000
 BRION: g(F)=  0.218E-02 g(S)=  0.000E+00 retain N=  2 mean eig= 0.91
 eig:   0.102  1.721
 bond charge predicted
       N       E                     dE             d eps       ncg     rms          rms(c)
DAV:   1    -0.863344817806E+03    0.28020E-04   -0.58324E+00  1720   0.304E+00    0.422E-01
DAV:   2    -0.863349107795E+03   -0.42900E-02   -0.56009E-02  1816   0.338E-01    0.226E-01
DAV:   3    -0.863350348592E+03   -0.12408E-02   -0.14119E-03  1832   0.728E-02    0.108E-01
DAV:   4    -0.863350364408E+03   -0.15815E-04   -0.45649E-04  2048   0.377E-02    0.646E-02
DAV:   5    -0.863350383188E+03   -0.18780E-04   -0.12220E-04  1840   0.241E-02    0.326E-02
DAV:   6    -0.863350394224E+03   -0.11036E-04   -0.36306E-05  1512   0.123E-02    0.119E-02
DAV:   7    -0.863350395908E+03   -0.16844E-05   -0.10297E-05  1536   0.579E-03
  49 F= -.86335040E+03 E0= -.86335040E+03  d E =-.554276E-02  mag=    -0.0000
 BRION: g(F)=  0.238E-02 g(S)=  0.000E+00 retain N=  3 mean eig= 1.52
 eig:   3.803  0.372  0.372
 bond charge predicted
       N       E                     dE             d eps       ncg     rms          rms(c)
DAV:   1    -0.863350977961E+03   -0.58374E-03   -0.66616E-02  1728   0.347E-01    0.501E-02
DAV:   2    -0.863351044857E+03   -0.66895E-04   -0.86005E-04  1928   0.442E-02    0.273E-02
DAV:   3    -0.863351053733E+03   -0.88762E-05   -0.22697E-05  1304   0.110E-02
  50 F= -.86335105E+03 E0= -.86335105E+03  d E =-.657824E-03  mag=    -0.0000
 BRION: g(F)=  0.172E-02 g(S)=  0.000E+00 retain N=  3 mean eig= 1.38
 eig:   3.738  0.194  0.194
 bond charge predicted
       N       E                     dE             d eps       ncg     rms          rms(c)
DAV:   1    -0.863352226458E+03   -0.11816E-02   -0.17037E+00  1712   0.166E+00    0.254E-01
DAV:   2    -0.863353573147E+03   -0.13467E-02   -0.18311E-02  1792   0.188E-01    0.135E-01
DAV:   3    -0.863354104622E+03   -0.53148E-03   -0.47450E-04  1784   0.432E-02    0.636E-02
DAV:   4    -0.863354110636E+03   -0.60141E-05   -0.15786E-04  1976   0.215E-02    0.379E-02
DAV:   5    -0.863354115837E+03   -0.52002E-05   -0.40913E-05  1584   0.142E-02
  51 F= -.86335412E+03 E0= -.86335412E+03  d E =-.306210E-02  mag=     0.0000
 BRION: g(F)=  0.172E-02 g(S)=  0.000E+00 retain N=  4 mean eig= 2.03
 eig:   7.153  0.279  0.349  0.349
 bond charge predicted
       N       E                     dE             d eps       ncg     rms          rms(c)
DAV:   1    -0.863353134358E+03    0.97628E-03   -0.64037E+00  1728   0.318E+00    0.470E-01
DAV:   2    -0.863357906937E+03   -0.47726E-02   -0.64973E-02  1808   0.355E-01    0.251E-01
DAV:   3    -0.863359739674E+03   -0.18327E-02   -0.16808E-03  1808   0.809E-02    0.118E-01
DAV:   4    -0.863359774375E+03   -0.34701E-04   -0.54060E-04  2048   0.391E-02    0.711E-02
DAV:   5    -0.863359798193E+03   -0.23818E-04   -0.13510E-04  1872   0.248E-02    0.357E-02
DAV:   6    -0.863359814124E+03   -0.15931E-04   -0.44153E-05  1560   0.131E-02    0.128E-02
DAV:   7    -0.863359816176E+03   -0.20520E-05   -0.11455E-05  1504   0.564E-03
  52 F= -.86335982E+03 E0= -.86335982E+03  d E =-.570034E-02  mag=     0.0000
 BRION: g(F)=  0.196E-02 g(S)=  0.000E+00 retain N=  3 mean eig= 0.72
 eig:   0.179  0.983  0.983
 bond charge predicted
       N       E                     dE             d eps       ncg     rms          rms(c)
DAV:   1    -0.863353562519E+03    0.62516E-02   -0.26472E+00  1712   0.205E+00    0.296E-01
DAV:   2    -0.863355490007E+03   -0.19275E-02   -0.26827E-02  1848   0.235E-01    0.159E-01
DAV:   3    -0.863356193621E+03   -0.70361E-03   -0.69828E-04  1800   0.498E-02    0.752E-02
DAV:   4    -0.863356210290E+03   -0.16668E-04   -0.22402E-04  2080   0.265E-02    0.452E-02
DAV:   5    -0.863356218477E+03   -0.81872E-05   -0.56718E-05  1800   0.168E-02
  53 F= -.86335622E+03 E0= -.86335622E+03  d E =0.359770E-02  mag=     0.0000
 BRION: g(F)=  0.240E-02 g(S)=  0.000E+00 retain N=  4 mean eig= 2.26
 eig:   7.436  0.137  0.737  0.737
 bond charge predicted
       N       E                     dE             d eps       ncg     rms          rms(c)
DAV:   1    -0.863353231519E+03    0.29788E-02   -0.89312E+00  1728   0.378E+00    0.574E-01
DAV:   2    -0.863359970826E+03   -0.67393E-02   -0.94805E-02  1808   0.426E-01    0.310E-01
DAV:   3    -0.863362909176E+03   -0.29383E-02   -0.24996E-03  1824   0.998E-02    0.144E-01
DAV:   4    -0.863362952859E+03   -0.43683E-04   -0.82993E-04  2064   0.469E-02    0.866E-02
DAV:   5    -0.863362981804E+03   -0.28945E-04   -0.19928E-04  1880   0.303E-02    0.430E-02
DAV:   6    -0.863363005519E+03   -0.23715E-04   -0.65425E-05  1632   0.160E-02    0.152E-02
DAV:   7    -0.863363007399E+03   -0.18797E-05   -0.15683E-05  1464   0.636E-03
  54 F= -.86336301E+03 E0= -.86336301E+03  d E =-.678892E-02  mag=    -0.0000
 BRION: g(F)=  0.189E-02 g(S)=  0.000E+00 retain N=  3 mean eig= 0.77
 eig:   0.763  0.763  0.776
 bond charge predicted
       N       E                     dE             d eps       ncg     rms          rms(c)
DAV:   1    -0.863357587017E+03    0.54185E-02   -0.20805E+00  1712   0.182E+00    0.275E-01
DAV:   2    -0.863359119644E+03   -0.15326E-02   -0.21963E-02  1832   0.208E-01    0.147E-01
DAV:   3    -0.863359794305E+03   -0.67466E-03   -0.57462E-04  1800   0.457E-02    0.692E-02
DAV:   4    -0.863359808871E+03   -0.14565E-04   -0.19056E-04  2040   0.244E-02    0.415E-02
DAV:   5    -0.863359814416E+03   -0.55458E-05   -0.48230E-05  1744   0.153E-02
  55 F= -.86335981E+03 E0= -.86335981E+03  d E =0.319298E-02  mag=     0.0000
 BRION: g(F)=  0.181E-02 g(S)=  0.000E+00 retain N=  3 mean eig= 1.51
 eig:   3.592  0.148  0.778
 bond charge predicted
       N       E                     dE             d eps       ncg     rms          rms(c)
DAV:   1    -0.863360580066E+03   -0.77120E-03   -0.24734E+00  1728   0.199E+00    0.306E-01
DAV:   2    -0.863362460883E+03   -0.18808E-02   -0.26777E-02  1784   0.225E-01    0.165E-01
DAV:   3    -0.863363357262E+03   -0.89638E-03   -0.69305E-04  1792   0.525E-02    0.764E-02
DAV:   4    -0.863363360461E+03   -0.31993E-05   -0.23175E-04  1992   0.254E-02    0.456E-02
DAV:   5    -0.863363368330E+03   -0.78693E-05   -0.56694E-05  1696   0.161E-02
  56 F= -.86336337E+03 E0= -.86336337E+03  d E =-.355391E-02  mag=    -0.0000
 BRION: g(F)=  0.165E-02 g(S)=  0.000E+00 retain N=  3 mean eig= 0.87
 eig:   1.769  0.633  0.219
 bond charge predicted
       N       E                     dE             d eps       ncg     rms          rms(c)
DAV:   1    -0.863363320353E+03    0.40108E-04   -0.41413E+00  1728   0.256E+00    0.400E-01
DAV:   2    -0.863366318435E+03   -0.29981E-02   -0.43595E-02  1808   0.287E-01    0.214E-01
DAV:   3    -0.863367777773E+03   -0.14593E-02   -0.11919E-03  1800   0.690E-02    0.101E-01
DAV:   4    -0.863367815690E+03   -0.37917E-04   -0.39499E-04  2048   0.330E-02    0.614E-02
DAV:   5    -0.863367832451E+03   -0.16761E-04   -0.97109E-05  1824   0.215E-02    0.302E-02
DAV:   6    -0.863367844303E+03   -0.11852E-04   -0.31593E-05  1448   0.118E-02    0.107E-02
DAV:   7    -0.863367845678E+03   -0.13750E-05   -0.85205E-06  1496   0.488E-03
  57 F= -.86336785E+03 E0= -.86336785E+03  d E =-.447735E-02  mag=     0.0000
 BRION: g(F)=  0.189E-02 g(S)=  0.000E+00 retain N=  3 mean eig= 0.56
 eig:   0.254  0.716  0.716
 bond charge predicted
       N       E                     dE             d eps       ncg     rms          rms(c)
DAV:   1    -0.863363595667E+03    0.42486E-02   -0.14667E+00  1712   0.153E+00    0.228E-01
DAV:   2    -0.863364725889E+03   -0.11302E-02   -0.15485E-02  1856   0.173E-01    0.123E-01
DAV:   3    -0.863365160566E+03   -0.43468E-03   -0.39424E-04  1840   0.384E-02    0.591E-02
DAV:   4    -0.863365157251E+03    0.33151E-05   -0.14067E-04  1960   0.219E-02    0.348E-02
DAV:   5    -0.863365158706E+03   -0.14545E-05   -0.36680E-05  1600   0.137E-02
  58 F= -.86336516E+03 E0= -.86336516E+03  d E =0.268697E-02  mag=     0.0000
 BRION: g(F)=  0.268E-02 g(S)=  0.000E+00 retain N=  3 mean eig= 1.22
 eig:   1.631  1.631  0.402
 bond charge predicted
       N       E                     dE             d eps       ncg     rms          rms(c)
DAV:   1    -0.863353476536E+03    0.11681E-01   -0.19033E+01  1728   0.547E+00    0.852E-01
DAV:   2    -0.863368536345E+03   -0.15060E-01   -0.20565E-01  1800   0.624E-01    0.468E-01
DAV:   3    -0.863374339827E+03   -0.58035E-02   -0.56587E-03  1804   0.154E-01    0.219E-01
DAV:   4    -0.863374451451E+03   -0.11162E-03   -0.18884E-03  2024   0.689E-02    0.133E-01
DAV:   5    -0.863374542921E+03   -0.91471E-04   -0.44423E-04  1920   0.449E-02    0.652E-02
DAV:   6    -0.863374600602E+03   -0.57681E-04   -0.15305E-04  1784   0.252E-02    0.227E-02
DAV:   7    -0.863374604492E+03   -0.38905E-05   -0.33305E-05  1560   0.901E-03
  59 F= -.86337460E+03 E0= -.86337460E+03  d E =-.944579E-02  mag=     0.0000
 BRION: g(F)=  0.194E-02 g(S)=  0.000E+00 retain N=  2 mean eig= 2.82
 eig:   0.122  5.518
 bond charge predicted
       N       E                     dE             d eps       ncg     rms          rms(c)
DAV:   1    -0.863366900731E+03    0.76999E-02   -0.34741E+00  1720   0.235E+00    0.357E-01
DAV:   2    -0.863369437978E+03   -0.25372E-02   -0.36825E-02  1816   0.269E-01    0.195E-01
DAV:   3    -0.863370545125E+03   -0.11071E-02   -0.98940E-04  1808   0.602E-02    0.936E-02
DAV:   4    -0.863370554837E+03   -0.97125E-05   -0.35415E-04  2072   0.347E-02    0.560E-02
DAV:   5    -0.863370562838E+03   -0.80007E-05   -0.94797E-05  1928   0.222E-02
  60 F= -.86337056E+03 E0= -.86337056E+03  d E =0.404165E-02  mag=     0.0000
 BRION: g(F)=  0.343E-02 g(S)=  0.000E+00 retain N=  3 mean eig= 2.60
 eig:   7.439  0.182  0.182
 bond charge predicted
       N       E                     dE             d eps       ncg     rms          rms(c)
DAV:   1    -0.863371658891E+03   -0.11041E-02   -0.42173E-01  1712   0.851E-01    0.129E-01
DAV:   2    -0.863372043525E+03   -0.38463E-03   -0.51440E-03  1808   0.104E-01    0.739E-02
DAV:   3    -0.863372134285E+03   -0.90760E-04   -0.14371E-04  1688   0.253E-02    0.359E-02
DAV:   4    -0.863372124645E+03    0.96400E-05   -0.61047E-05  1944   0.149E-02
  61 F= -.86337212E+03 E0= -.86337212E+03  d E =-.156181E-02  mag=     0.0000
 BRION: g(F)=  0.150E-02 g(S)=  0.000E+00 retain N=  2 mean eig= 2.25
 eig:   0.186  4.306
 bond charge predicted
       N       E                     dE             d eps       ncg     rms          rms(c)
DAV:   1    -0.863373145966E+03   -0.10117E-02   -0.10269E+00  1728   0.127E+00    0.205E-01
DAV:   2    -0.863373952371E+03   -0.80641E-03   -0.10967E-02  1776   0.142E-01    0.113E-01
DAV:   3    -0.863374273733E+03   -0.32136E-03   -0.31011E-04  1736   0.356E-02    0.536E-02
DAV:   4    -0.863374286059E+03   -0.12325E-04   -0.10864E-04  1792   0.174E-02    0.321E-02
DAV:   5    -0.863374290275E+03   -0.42164E-05   -0.26694E-05  1424   0.114E-02
  62 F= -.86337429E+03 E0= -.86337429E+03  d E =-.216563E-02  mag=     0.0000
 BRION: g(F)=  0.135E-02 g(S)=  0.000E+00 retain N=  2 mean eig= 0.16
 eig:   0.224  0.090
 bond charge predicted
       N       E                     dE             d eps       ncg     rms          rms(c)
DAV:   1    -0.863375207427E+03   -0.92137E-03   -0.57560E-01  1720   0.951E-01    0.152E-01
DAV:   2    -0.863375689286E+03   -0.48186E-03   -0.62140E-03  1832   0.108E-01    0.825E-02
DAV:   3    -0.863375831905E+03   -0.14262E-03   -0.18033E-04  1680   0.272E-02    0.396E-02
DAV:   4    -0.863375839246E+03   -0.73411E-05   -0.60468E-05  1808   0.139E-02
  63 F= -.86337584E+03 E0= -.86337584E+03  d E =-.154897E-02  mag=     0.0000
 BRION: g(F)=  0.179E-02 g(S)=  0.000E+00 retain N=  3 mean eig= 0.24
 eig:   0.162  0.284  0.284
 bond charge predicted
       N       E                     dE             d eps       ncg     rms          rms(c)
DAV:   1    -0.863376342311E+03   -0.51041E-03   -0.77042E-02  1728   0.347E-01    0.668E-02
DAV:   2    -0.863376415528E+03   -0.73218E-04   -0.10283E-03  2016   0.430E-02    0.364E-02
DAV:   3    -0.863376443992E+03   -0.28464E-04   -0.31828E-05  1400   0.120E-02    0.181E-02
DAV:   4    -0.863376446294E+03   -0.23016E-05   -0.13119E-05  1544   0.642E-03
  64 F= -.86337645E+03 E0= -.86337645E+03  d E =-.607048E-03  mag=     0.0000
 BRION: g(F)=  0.138E-02 g(S)=  0.000E+00 retain N=  1 mean eig= 0.22
 eig:   0.217
 bond charge predicted
       N       E                     dE             d eps       ncg     rms          rms(c)
DAV:   1    -0.863377187654E+03   -0.74366E-03   -0.32937E-01  1712   0.740E-01    0.119E-01
DAV:   2    -0.863377488478E+03   -0.30082E-03   -0.39119E-03  1840   0.883E-02    0.660E-02
DAV:   3    -0.863377568771E+03   -0.80292E-04   -0.11353E-04  1648   0.232E-02    0.325E-02
DAV:   4    -0.863377565786E+03    0.29850E-05   -0.42497E-05  1768   0.137E-02
  65 F= -.86337757E+03 E0= -.86337757E+03  d E =-.111949E-02  mag=    -0.0000
 BRION: g(F)=  0.189E-02 g(S)=  0.000E+00 retain N=  2 mean eig= 0.16
 eig:   0.227  0.088
 bond charge predicted
       N       E                     dE             d eps       ncg     rms          rms(c)
DAV:   1    -0.863377908498E+03   -0.33973E-03   -0.27586E-02  1728   0.236E-01    0.391E-02
DAV:   2    -0.863377939535E+03   -0.31037E-04   -0.46674E-04  2016   0.333E-02    0.225E-02
DAV:   3    -0.863377945941E+03   -0.64059E-05   -0.13944E-05  1280   0.913E-03
  66 F= -.86337795E+03 E0= -.86337795E+03  d E =-.380156E-03  mag=    -0.0000
 BRION: g(F)=  0.128E-02 g(S)=  0.000E+00 retain N=  1 mean eig= 0.28
 eig:   0.281
 bond charge predicted
       N       E                     dE             d eps       ncg     rms          rms(c)
DAV:   1    -0.863378770485E+03   -0.83095E-03   -0.38918E-01  1728   0.792E-01    0.127E-01
DAV:   2    -0.863379111706E+03   -0.34122E-03   -0.43556E-03  1832   0.905E-02    0.706E-02
DAV:   3    -0.863379204690E+03   -0.92984E-04   -0.12792E-04  1584   0.233E-02    0.340E-02
DAV:   4    -0.863379207311E+03   -0.26213E-05   -0.44867E-05  1688   0.123E-02
  67 F= -.86337921E+03 E0= -.86337921E+03  d E =-.126137E-02  mag=     0.0000
 BRION: g(F)=  0.155E-02 g(S)=  0.000E+00 retain N=  2 mean eig= 0.18
 eig:   0.253  0.115
 bond charge predicted
       N       E                     dE             d eps       ncg     rms          rms(c)
DAV:   1    -0.863379460215E+03   -0.25552E-03   -0.16883E-02  1728   0.165E-01    0.344E-02
DAV:   2    -0.863379478609E+03   -0.18394E-04   -0.26370E-04  2024   0.223E-02    0.188E-02
DAV:   3    -0.863379486808E+03   -0.81994E-05   -0.85914E-06  1312   0.639E-03
  68 F= -.86337949E+03 E0= -.86337949E+03  d E =-.279497E-03  mag=     0.0000
 BRION: g(F)=  0.125E-02 g(S)=  0.000E+00 retain N=  1 mean eig= 0.23
 eig:   0.226
 bond charge predicted
       N       E                     dE             d eps       ncg     rms          rms(c)
DAV:   1    -0.863380325913E+03   -0.84730E-03   -0.37597E-01  1728   0.781E-01    0.126E-01
DAV:   2    -0.863380646618E+03   -0.32070E-03   -0.41805E-03  1776   0.895E-02    0.706E-02
DAV:   3    -0.863380736022E+03   -0.89404E-04   -0.12807E-04  1600   0.231E-02    0.337E-02
DAV:   4    -0.863380740429E+03   -0.44066E-05   -0.46039E-05  1648   0.116E-02
  69 F= -.86338074E+03 E0= -.86338074E+03  d E =-.125362E-02  mag=     0.0000
 BRION: g(F)=  0.131E-02 g(S)=  0.000E+00 retain N=  2 mean eig= 0.09
 eig:   0.165  0.023
 bond charge predicted
       N       E                     dE             d eps       ncg     rms          rms(c)
DAV:   1    -0.863381066927E+03   -0.33090E-03   -0.30658E-02  1728   0.224E-01    0.412E-02
DAV:   2    -0.863381095107E+03   -0.28180E-04   -0.36830E-04  1840   0.271E-02    0.233E-02
DAV:   3    -0.863381105546E+03   -0.10439E-04   -0.12439E-05  1248   0.765E-03    0.121E-02
DAV:   4    -0.863381106199E+03   -0.65273E-06   -0.56569E-06  1552   0.454E-03
  70 F= -.86338111E+03 E0= -.86338111E+03  d E =-.365770E-03  mag=     0.0000
 BRION: g(F)=  0.124E-02 g(S)=  0.000E+00 retain N=  1 mean eig= 0.30
 eig:   0.296
 bond charge predicted
       N       E                     dE             d eps       ncg     rms          rms(c)
DAV:   1    -0.863381916102E+03   -0.81056E-03   -0.35042E-01  1728   0.751E-01    0.124E-01
DAV:   2    -0.863382215914E+03   -0.29981E-03   -0.39683E-03  1776   0.862E-02    0.693E-02
DAV:   3    -0.863382310421E+03   -0.94506E-04   -0.12249E-04  1576   0.223E-02    0.329E-02
DAV:   4    -0.863382316714E+03   -0.62935E-05   -0.42342E-05  1584   0.108E-02
  71 F= -.86338232E+03 E0= -.86338232E+03  d E =-.121052E-02  mag=     0.0000
 BRION: g(F)=  0.124E-02 g(S)=  0.000E+00 retain N=  2 mean eig= 0.44
 eig:   0.266  0.605
 bond charge predicted
       N       E                     dE             d eps       ncg     rms          rms(c)
DAV:   1    -0.863382805377E+03   -0.49496E-03   -0.85337E-02  1728   0.366E-01    0.634E-02
DAV:   2    -0.863382884549E+03   -0.79172E-04   -0.95865E-04  1856   0.417E-02    0.359E-02
DAV:   3    -0.863382904075E+03   -0.19526E-04   -0.29479E-05  1344   0.113E-02    0.181E-02
DAV:   4    -0.863382905119E+03   -0.10438E-05   -0.11851E-05  1536   0.658E-03
  72 F= -.86338291E+03 E0= -.86338291E+03  d E =-.588405E-03  mag=     0.0000
 BRION: g(F)=  0.128E-02 g(S)=  0.000E+00 retain N=  1 mean eig= 0.13
 eig:   0.128
 bond charge predicted
       N       E                     dE             d eps       ncg     rms          rms(c)
DAV:   1    -0.863383559439E+03   -0.65536E-03   -0.17644E-01  1728   0.533E-01    0.899E-02
DAV:   2    -0.863383712775E+03   -0.15334E-03   -0.20109E-03  1776   0.615E-02    0.504E-02
DAV:   3    -0.863383759475E+03   -0.46700E-04   -0.63629E-05  1504   0.162E-02    0.242E-02
DAV:   4    -0.863383762300E+03   -0.28247E-05   -0.22640E-05  1560   0.802E-03
  73 F= -.86338376E+03 E0= -.86338376E+03  d E =-.857181E-03  mag=     0.0000
 BRION: g(F)=  0.121E-02 g(S)=  0.000E+00 retain N=  2 mean eig= 2.91
 eig:   0.107  5.715
 bond charge predicted
       N       E                     dE             d eps       ncg     rms          rms(c)
DAV:   1    -0.863384455224E+03   -0.69575E-03   -0.21420E-01  1712   0.585E-01    0.993E-02
DAV:   2    -0.863384640203E+03   -0.18498E-03   -0.24183E-03  1776   0.674E-02    0.563E-02
DAV:   3    -0.863384693315E+03   -0.53112E-04   -0.77901E-05  1520   0.179E-02    0.273E-02
DAV:   4    -0.863384697650E+03   -0.43349E-05   -0.27690E-05  1504   0.896E-03
  74 F= -.86338470E+03 E0= -.86338470E+03  d E =-.935350E-03  mag=     0.0000
 BRION: g(F)=  0.121E-02 g(S)=  0.000E+00 retain N=  2 mean eig= 0.38
 eig:   0.379  0.379
 bond charge predicted
       N       E                     dE             d eps       ncg     rms          rms(c)
DAV:   1    -0.863385407671E+03   -0.71436E-03   -0.23721E-01  1728   0.616E-01    0.103E-01
DAV:   2    -0.863385614081E+03   -0.20641E-03   -0.26512E-03  1776   0.705E-02    0.588E-02
DAV:   3    -0.863385669789E+03   -0.55708E-04   -0.83887E-05  1544   0.186E-02    0.286E-02
DAV:   4    -0.863385673584E+03   -0.37947E-05   -0.30377E-05  1528   0.959E-03
  75 F= -.86338567E+03 E0= -.86338567E+03  d E =-.975934E-03  mag=     0.0000
 BRION: g(F)=  0.122E-02 g(S)=  0.000E+00 retain N=  2 mean eig= 1.21
 eig:   0.351  2.067
 bond charge predicted
       N       E                     dE             d eps       ncg     rms          rms(c)
DAV:   1    -0.863386028224E+03   -0.35844E-03   -0.46413E-02  1736   0.271E-01    0.516E-02
DAV:   2    -0.863386069965E+03   -0.41741E-04   -0.60015E-04  2000   0.329E-02    0.288E-02
DAV:   3    -0.863386087312E+03   -0.17346E-04   -0.19590E-05  1280   0.933E-03    0.143E-02
DAV:   4    -0.863386088827E+03   -0.15151E-05   -0.85790E-06  1544   0.509E-03
  76 F= -.86338609E+03 E0= -.86338609E+03  d E =-.415243E-03  mag=     0.0000
 BRION: g(F)=  0.128E-02 g(S)=  0.000E+00 retain N=  2 mean eig= 0.51
 eig:   0.510  0.510
 bond charge predicted
       N       E                     dE             d eps       ncg     rms          rms(c)
DAV:   1    -0.863386668866E+03   -0.58155E-03   -0.13208E-01  1720   0.461E-01    0.760E-02
DAV:   2    -0.863386788367E+03   -0.11950E-03   -0.15060E-03  1792   0.532E-02    0.432E-02
DAV:   3    -0.863386816325E+03   -0.27957E-04   -0.46426E-05  1496   0.140E-02    0.212E-02
DAV:   4    -0.863386817399E+03   -0.10740E-05   -0.17172E-05  1552   0.766E-03
  77 F= -.86338682E+03 E0= -.86338682E+03  d E =-.728572E-03  mag=     0.0000
 BRION: g(F)=  0.117E-02 g(S)=  0.000E+00 retain N=  2 mean eig= 2.97
 eig:   0.218  5.724
 bond charge predicted
       N       E                     dE             d eps       ncg     rms          rms(c)
DAV:   1    -0.863387426515E+03   -0.61019E-03   -0.15970E-01  1712   0.510E-01    0.858E-02
DAV:   2    -0.863387567801E+03   -0.14129E-03   -0.18383E-03  1760   0.594E-02    0.491E-02
DAV:   3    -0.863387604840E+03   -0.37038E-04   -0.59410E-05  1512   0.158E-02    0.239E-02
DAV:   4    -0.863387606839E+03   -0.19993E-05   -0.21979E-05  1512   0.826E-03
  78 F= -.86338761E+03 E0= -.86338761E+03  d E =-.789440E-03  mag=     0.0000
 BRION: g(F)=  0.118E-02 g(S)=  0.000E+00 retain N=  2 mean eig= 0.15
 eig:   0.222  0.083
 bond charge predicted
       N       E                     dE             d eps       ncg     rms          rms(c)
DAV:   1    -0.863388112287E+03   -0.50745E-03   -0.95976E-02  1712   0.393E-01    0.685E-02
DAV:   2    -0.863388196101E+03   -0.83814E-04   -0.11112E-03  1784   0.458E-02    0.391E-02
DAV:   3    -0.863388221602E+03   -0.25501E-04   -0.36746E-05  1376   0.124E-02    0.191E-02
DAV:   4    -0.863388223395E+03   -0.17929E-05   -0.14101E-05  1552   0.662E-03
  79 F= -.86338822E+03 E0= -.86338822E+03  d E =-.616556E-03  mag=     0.0000
 BRION: g(F)=  0.115E-02 g(S)=  0.000E+00 retain N=  2 mean eig= 1.07
 eig:   0.110  2.023
 bond charge predicted
       N       E                     dE             d eps       ncg     rms          rms(c)
DAV:   1    -0.863388857498E+03   -0.63590E-03   -0.17935E-01  1728   0.536E-01    0.904E-02
DAV:   2    -0.863389015826E+03   -0.15833E-03   -0.20372E-03  1744   0.615E-02    0.518E-02
DAV:   3    -0.863389057042E+03   -0.41216E-04   -0.65972E-05  1512   0.164E-02    0.251E-02
DAV:   4    -0.863389059720E+03   -0.26783E-05   -0.23284E-05  1528   0.840E-03
  80 F= -.86338906E+03 E0= -.86338906E+03  d E =-.836325E-03  mag=     0.0000
 BRION: g(F)=  0.116E-02 g(S)=  0.000E+00 retain N=  2 mean eig= 0.64
 eig:   0.308  0.978
 bond charge predicted
       N       E                     dE             d eps       ncg     rms          rms(c)
DAV:   1    -0.863389646176E+03   -0.58913E-03   -0.14764E-01  1712   0.488E-01    0.850E-02
DAV:   2    -0.863389773856E+03   -0.12768E-03   -0.17164E-03  1784   0.568E-02    0.488E-02
DAV:   3    -0.863389812171E+03   -0.38316E-04   -0.58144E-05  1488   0.154E-02    0.236E-02
DAV:   4    -0.863389815262E+03   -0.30911E-05   -0.21253E-05  1568   0.777E-03
  81 F= -.86338982E+03 E0= -.86338982E+03  d E =-.755542E-03  mag=     0.0000
 BRION: g(F)=  0.114E-02 g(S)=  0.000E+00 retain N=  2 mean eig= 1.61
 eig:   0.159  3.062
 bond charge predicted
       N       E                     dE             d eps       ncg     rms          rms(c)
DAV:   1    -0.863390400839E+03   -0.58867E-03   -0.15188E-01  1712   0.494E-01    0.849E-02
DAV:   2    -0.863390533030E+03   -0.13219E-03   -0.17518E-03  1768   0.577E-02    0.491E-02
DAV:   3    -0.863390568709E+03   -0.35679E-04   -0.59093E-05  1520   0.157E-02    0.239E-02
DAV:   4    -0.863390571045E+03   -0.23360E-05   -0.21533E-05  1520   0.826E-03
  82 F= -.86339057E+03 E0= -.86339057E+03  d E =-.755783E-03  mag=     0.0000
 BRION: g(F)=  0.116E-02 g(S)=  0.000E+00 retain N=  2 mean eig= 0.30
 eig:   0.306  0.296
 bond charge predicted
       N       E                     dE             d eps       ncg     rms          rms(c)
DAV:   1    -0.863391006313E+03   -0.43760E-03   -0.70225E-02  1712   0.338E-01    0.581E-02
DAV:   2    -0.863391071142E+03   -0.64829E-04   -0.82534E-04  1800   0.398E-02    0.336E-02
DAV:   3    -0.863391086514E+03   -0.15372E-04   -0.26389E-05  1272   0.108E-02    0.168E-02
DAV:   4    -0.863391087165E+03   -0.65139E-06   -0.11327E-05  1544   0.672E-03
  83 F= -.86339109E+03 E0= -.86339109E+03  d E =-.516120E-03  mag=     0.0000
 BRION: g(F)=  0.111E-02 g(S)=  0.000E+00 retain N=  2 mean eig= 1.02
 eig:   0.175  1.860
 bond charge predicted
       N       E                     dE             d eps       ncg     rms          rms(c)
DAV:   1    -0.863391721515E+03   -0.63500E-03   -0.20828E-01  1728   0.580E-01    0.102E-01
DAV:   2    -0.863391898903E+03   -0.17739E-03   -0.24873E-03  1832   0.679E-02    0.583E-02
DAV:   3    -0.863391954042E+03   -0.55139E-04   -0.86102E-05  1568   0.185E-02    0.278E-02
DAV:   4    -0.863391959721E+03   -0.56792E-05   -0.30496E-05  1544   0.888E-03
  84 F= -.86339196E+03 E0= -.86339196E+03  d E =-.872556E-03  mag=     0.0000
 BRION: g(F)=  0.121E-02 g(S)=  0.000E+00 retain N=  2 mean eig= 0.19
 eig:   0.193  0.193
 bond charge predicted
       N       E                     dE             d eps       ncg     rms          rms(c)
DAV:   1    -0.863392272853E+03   -0.31881E-03   -0.32525E-02  1728   0.227E-01    0.412E-02
DAV:   2    -0.863392305953E+03   -0.33100E-04   -0.39445E-04  1936   0.264E-02    0.238E-02
DAV:   3    -0.863392312475E+03   -0.65218E-05   -0.12787E-05  1240   0.754E-03
  85 F= -.86339231E+03 E0= -.86339231E+03  d E =-.352753E-03  mag=     0.0000
 BRION: g(F)=  0.106E-02 g(S)=  0.000E+00 retain N=  2 mean eig= 2.99
 eig:   0.182  5.799
 bond charge predicted
       N       E                     dE             d eps       ncg     rms          rms(c)
DAV:   1    -0.863393029743E+03   -0.72379E-03   -0.30065E-01  1712   0.701E-01    0.120E-01
DAV:   2    -0.863393278913E+03   -0.24917E-03   -0.34896E-03  1760   0.822E-02    0.703E-02
DAV:   3    -0.863393342385E+03   -0.63472E-04   -0.12732E-04  1600   0.227E-02    0.337E-02
DAV:   4    -0.863393348561E+03   -0.61761E-05   -0.45972E-05  1600   0.115E-02
  86 F= -.86339335E+03 E0= -.86339335E+03  d E =-.103609E-02  mag=     0.0000
 BRION: g(F)=  0.118E-02 g(S)=  0.000E+00 retain N=  2 mean eig= 0.11
 eig:   0.205  0.011
 bond charge predicted
       N       E                     dE             d eps       ncg     rms          rms(c)
DAV:   1    -0.863393685654E+03   -0.34327E-03   -0.39770E-02  1712   0.257E-01    0.482E-02
DAV:   2    -0.863393723041E+03   -0.37388E-04   -0.51205E-04  1864   0.319E-02    0.283E-02
DAV:   3    -0.863393734411E+03   -0.11370E-04   -0.18358E-05  1272   0.917E-03    0.142E-02
DAV:   4    -0.863393735281E+03   -0.87023E-06   -0.84724E-06  1528   0.572E-03
  87 F= -.86339374E+03 E0= -.86339374E+03  d E =-.386720E-03  mag=     0.0000
 BRION: g(F)=  0.111E-02 g(S)=  0.000E+00 retain N=  2 mean eig= 1.94
 eig:   0.218  3.661
 bond charge predicted
       N       E                     dE             d eps       ncg     rms          rms(c)
DAV:   1    -0.863393341967E+03    0.39244E-03   -0.35559E-02  1712   0.241E-01    0.406E-02
DAV:   2    -0.863393372688E+03   -0.30722E-04   -0.42770E-04  1856   0.285E-02    0.235E-02
DAV:   3    -0.863393379925E+03   -0.72366E-05   -0.15575E-05  1280   0.777E-03
  88 F= -.86339338E+03 E0= -.86339338E+03  d E =0.355357E-03  mag=     0.0000
 BRION: g(F)=  0.108E-02 g(S)=  0.000E+00 retain N=  2 mean eig= 0.20
 eig:   0.285  0.110
 bond charge predicted
       N       E                     dE             d eps       ncg     rms          rms(c)
DAV:   1    -0.863394080993E+03   -0.70830E-03   -0.28836E-01  1712   0.674E-01    0.108E-01
DAV:   2    -0.863394328375E+03   -0.24738E-03   -0.31820E-03  1744   0.770E-02    0.612E-02
DAV:   3    -0.863394390291E+03   -0.61917E-04   -0.98852E-05  1544   0.196E-02    0.287E-02
DAV:   4    -0.863394393053E+03   -0.27618E-05   -0.32128E-05  1568   0.965E-03
  89 F= -.86339439E+03 E0= -.86339439E+03  d E =-.101313E-02  mag=     0.0000
 BRION: g(F)=  0.110E-02 g(S)=  0.000E+00 retain N=  3 mean eig= 2.49
 eig:   7.128  0.308  0.030
 bond charge predicted
       N       E                     dE             d eps       ncg     rms          rms(c)
DAV:   1    -0.863395150791E+03   -0.76050E-03   -0.94679E-01  1728   0.125E+00    0.221E-01
DAV:   2    -0.863395892558E+03   -0.74177E-03   -0.11553E-02  1744   0.147E-01    0.131E-01
DAV:   3    -0.863396193791E+03   -0.30123E-03   -0.42037E-04  1764   0.408E-02    0.623E-02
DAV:   4    -0.863396222691E+03   -0.28900E-04   -0.15078E-04  1824   0.198E-02    0.393E-02
DAV:   5    -0.863396225486E+03   -0.27956E-05   -0.31946E-05  1392   0.130E-02
  90 F= -.86339623E+03 E0= -.86339623E+03  d E =-.183243E-02  mag=     0.0000
 BRION: g(F)=  0.115E-02 g(S)=  0.000E+00 retain N=  2 mean eig= 0.43
 eig:   0.432  0.432
 bond charge predicted
       N       E                     dE             d eps       ncg     rms          rms(c)
DAV:   1    -0.863395339932E+03    0.88276E-03   -0.14958E-01  1712   0.516E-01    0.876E-02
DAV:   2    -0.863395491963E+03   -0.15203E-03   -0.20832E-03  1784   0.649E-02    0.533E-02
DAV:   3    -0.863395518249E+03   -0.26285E-04   -0.71834E-05  1528   0.175E-02    0.259E-02
DAV:   4    -0.863395516383E+03    0.18652E-05   -0.29176E-05  1600   0.101E-02
  91 F= -.86339552E+03 E0= -.86339552E+03  d E =0.709103E-03  mag=     0.0000
 BRION: g(F)=  0.117E-02 g(S)=  0.000E+00 retain N=  2 mean eig= 0.29
 eig:   0.286  0.286
 bond charge predicted
       N       E                     dE             d eps       ncg     rms          rms(c)
DAV:   1    -0.863396209994E+03   -0.69174E-03   -0.25303E-01  1712   0.639E-01    0.106E-01
DAV:   2    -0.863396426803E+03   -0.21681E-03   -0.29600E-03  1768   0.752E-02    0.620E-02
DAV:   3    -0.863396472790E+03   -0.45987E-04   -0.10614E-04  1552   0.203E-02    0.293E-02
DAV:   4    -0.863396475219E+03   -0.24296E-05   -0.35117E-05  1592   0.101E-02
  92 F= -.86339648E+03 E0= -.86339648E+03  d E =-.958836E-03  mag=     0.0000
 BRION: g(F)=  0.105E-02 g(S)=  0.000E+00 retain N=  2 mean eig= 0.72
 eig:   0.108  1.330
 bond charge predicted
       N       E                     dE             d eps       ncg     rms          rms(c)
DAV:   1    -0.863397016940E+03   -0.54415E-03   -0.13584E-01  1728   0.467E-01    0.855E-02
DAV:   2    -0.863397133700E+03   -0.11676E-03   -0.16248E-03  1768   0.549E-02    0.508E-02
DAV:   3    -0.863397165177E+03   -0.31478E-04   -0.62319E-05  1464   0.156E-02    0.243E-02
DAV:   4    -0.863397169430E+03   -0.42531E-05   -0.22594E-05  1512   0.790E-03
  93 F= -.86339717E+03 E0= -.86339717E+03  d E =-.694211E-03  mag=     0.0000
[...]
DAV:   1    -0.863519147111E+03   -0.25411E-03   -0.12077E-02  1712   0.133E-01    0.376E-02
DAV:   2    -0.863519168048E+03   -0.20937E-04   -0.27607E-04  1968   0.204E-02    0.213E-02
DAV:   3    -0.863519167836E+03    0.21218E-06   -0.13771E-05  1240   0.846E-03
 471 F= -.86351917E+03 E0= -.86351917E+03  d E =-.273509E-03  mag=     0.0000
 BRION: g(F)=  0.131E-02 g(S)=  0.000E+00 retain N=  1 mean eig= 0.24
 eig:   0.239
 bond charge predicted
       N       E                     dE             d eps       ncg     rms          rms(c)
DAV:   1    -0.863519816153E+03   -0.64810E-03   -0.32571E-01  1712   0.607E-01    0.207E-01
DAV:   2    -0.863519688399E+03    0.12775E-03   -0.67735E-03  1712   0.911E-02    0.119E-01
DAV:   3    -0.863520376109E+03   -0.68771E-03   -0.39844E-04  1568   0.394E-02    0.526E-02
DAV:   4    -0.863520434283E+03   -0.58174E-04   -0.11817E-04  1784   0.173E-02    0.359E-02
DAV:   5    -0.863520437263E+03   -0.29800E-05   -0.21070E-05  1336   0.118E-02
 472 F= -.86352044E+03 E0= -.86352044E+03  d E =-.126943E-02  mag=     0.0000
 BRION: g(F)=  0.175E-02 g(S)=  0.000E+00 retain N=  2 mean eig= 0.18
 eig:   0.210  0.155
 bond charge predicted
       N       E                     dE             d eps       ncg     rms          rms(c)
DAV:   1    -0.863520706574E+03   -0.27229E-03   -0.13261E-02  1712   0.138E-01    0.396E-02
DAV:   2    -0.863520729304E+03   -0.22730E-04   -0.29921E-04  1904   0.214E-02    0.226E-02
DAV:   3    -0.863520729806E+03   -0.50227E-06   -0.15935E-05  1240   0.920E-03
 473 F= -.86352073E+03 E0= -.86352073E+03  d E =-.292543E-03  mag=     0.0000
 BRION: g(F)=  0.131E-02 g(S)=  0.000E+00 retain N=  1 mean eig= 0.25
 eig:   0.252
 bond charge predicted
       N       E                     dE             d eps       ncg     rms          rms(c)
DAV:   1    -0.863521435084E+03   -0.70578E-03   -0.33464E-01  1712   0.599E-01    0.211E-01
DAV:   2    -0.863521262552E+03    0.17253E-03   -0.68236E-03  1712   0.884E-02    0.121E-01
DAV:   3    -0.863522009585E+03   -0.74703E-03   -0.41750E-04  1568   0.399E-02    0.532E-02
DAV:   4    -0.863522072781E+03   -0.63196E-04   -0.11834E-04  1664   0.155E-02    0.365E-02
DAV:   5    -0.863522078555E+03   -0.57740E-05   -0.19108E-05  1312   0.108E-02
 474 F= -.86352208E+03 E0= -.86352208E+03  d E =-.134875E-02  mag=     0.0000
 BRION: g(F)=  0.141E-02 g(S)=  0.000E+00 retain N=  2 mean eig= 0.14
 eig:   0.252  0.028
 bond charge predicted
       N       E                     dE             d eps       ncg     rms          rms(c)
DAV:   1    -0.863522201666E+03   -0.12888E-03   -0.25623E-03  1616   0.570E-02    0.178E-02
DAV:   2    -0.863522205795E+03   -0.41297E-05   -0.49719E-05  1464   0.834E-03
 475 F= -.86352221E+03 E0= -.86352221E+03  d E =-.127240E-03  mag=     0.0000
 BRION: g(F)=  0.136E-02 g(S)=  0.000E+00 retain N=  2 mean eig= 1.91
 eig:   0.170  3.652
 bond charge predicted
       N       E                     dE             d eps       ncg     rms          rms(c)
DAV:   1    -0.863522431469E+03   -0.22980E-03   -0.16925E-02  1712   0.138E-01    0.479E-02
DAV:   2    -0.863522452308E+03   -0.20839E-04   -0.36555E-04  1952   0.208E-02    0.266E-02
DAV:   3    -0.863522462167E+03   -0.98595E-05   -0.21935E-05  1280   0.999E-03
 476 F= -.86352246E+03 E0= -.86352246E+03  d E =-.256372E-03  mag=     0.0000
 BRION: g(F)=  0.154E-02 g(S)=  0.000E+00 retain N=  2 mean eig= 0.46
 eig:   0.276  0.635
 bond charge predicted
       N       E                     dE             d eps       ncg     rms          rms(c)
DAV:   1    -0.863523151904E+03   -0.69960E-03   -0.26918E-01  1712   0.546E-01    0.188E-01
DAV:   2    -0.863523049684E+03    0.10222E-03   -0.55601E-03  1712   0.815E-02    0.106E-01
DAV:   3    -0.863523637844E+03   -0.58816E-03   -0.32536E-04  1568   0.355E-02    0.465E-02
DAV:   4    -0.863523684561E+03   -0.46718E-04   -0.89314E-05  1720   0.147E-02    0.316E-02
DAV:   5    -0.863523686417E+03   -0.18552E-05   -0.15958E-05  1304   0.100E-02
 477 F= -.86352369E+03 E0= -.86352369E+03  d E =-.122425E-02  mag=     0.0000
 BRION: g(F)=  0.140E-02 g(S)=  0.000E+00 retain N=  2 mean eig= 1.35
 eig:   0.230  2.473
 bond charge predicted
       N       E                     dE             d eps       ncg     rms          rms(c)
DAV:   1    -0.863524046082E+03   -0.36152E-03   -0.27311E-02  1712   0.179E-01    0.590E-02
DAV:   2    -0.863524072012E+03   -0.25930E-04   -0.52820E-04  1712   0.268E-02    0.354E-02
DAV:   3    -0.863524085484E+03   -0.13472E-04   -0.36565E-05  1328   0.126E-02    0.162E-02
DAV:   4    -0.863524090421E+03   -0.49370E-05   -0.11382E-05  1336   0.541E-03
 478 F= -.86352409E+03 E0= -.86352409E+03  d E =-.404005E-03  mag=     0.0000
 BRION: g(F)=  0.135E-02 g(S)=  0.000E+00 retain N=  2 mean eig= 0.25
 eig:   0.297  0.209
 bond charge predicted
       N       E                     dE             d eps       ncg     rms          rms(c)
DAV:   1    -0.863524713533E+03   -0.62805E-03   -0.15924E-01  1712   0.413E-01    0.144E-01
DAV:   2    -0.863524682201E+03    0.31332E-04   -0.32474E-03  1712   0.609E-02    0.829E-02
DAV:   3    -0.863525001092E+03   -0.31889E-03   -0.19485E-04  1560   0.278E-02    0.366E-02
DAV:   4    -0.863525028532E+03   -0.27440E-04   -0.55384E-05  1664   0.109E-02    0.248E-02
DAV:   5    -0.863525028357E+03    0.17532E-06   -0.92138E-06  1256   0.717E-03
 479 F= -.86352503E+03 E0= -.86352503E+03  d E =-.937935E-03  mag=     0.0000
 BRION: g(F)=  0.150E-02 g(S)=  0.000E+00 retain N=  3 mean eig= 0.32
 eig:   0.352  0.308  0.308
 bond charge predicted
       N       E                     dE             d eps       ncg     rms          rms(c)
DAV:   1    -0.863525131524E+03   -0.10299E-03   -0.23733E-03  1696   0.627E-02    0.159E-02
DAV:   2    -0.863525135478E+03   -0.39539E-05   -0.54549E-05  1680   0.953E-03
 480 F= -.86352514E+03 E0= -.86352514E+03  d E =-.107121E-03  mag=     0.0000
 BRION: g(F)=  0.138E-02 g(S)=  0.000E+00 retain N=  1 mean eig= 0.22
 eig:   0.224
 bond charge predicted
       N       E                     dE             d eps       ncg     rms          rms(c)
DAV:   1    -0.863525857124E+03   -0.72560E-03   -0.33367E-01  1712   0.599E-01    0.207E-01
DAV:   2    -0.863525654687E+03    0.20244E-03   -0.65786E-03  1712   0.851E-02    0.117E-01
DAV:   3    -0.863526432613E+03   -0.77793E-03   -0.39215E-04  1568   0.389E-02    0.520E-02
DAV:   4    -0.863526492937E+03   -0.60324E-04   -0.10942E-04  1736   0.143E-02    0.355E-02
DAV:   5    -0.863526497699E+03   -0.47619E-05   -0.18801E-05  1328   0.101E-02
 481 F= -.86352650E+03 E0= -.86352650E+03  d E =-.136222E-02  mag=    -0.0000
 BRION: g(F)=  0.161E-02 g(S)=  0.000E+00 retain N=  2 mean eig= 0.20
 eig:   0.174  0.227
 bond charge predicted
       N       E                     dE             d eps       ncg     rms          rms(c)
DAV:   1    -0.863526760306E+03   -0.26737E-03   -0.13411E-02  1712   0.133E-01    0.388E-02
DAV:   2    -0.863526777275E+03   -0.16968E-04   -0.27725E-04  1904   0.211E-02    0.220E-02
DAV:   3    -0.863526783562E+03   -0.62872E-05   -0.14303E-05  1216   0.830E-03
 482 F= -.86352678E+03 E0= -.86352678E+03  d E =-.285863E-03  mag=    -0.0000
 BRION: g(F)=  0.137E-02 g(S)=  0.000E+00 retain N=  1 mean eig= 0.21
 eig:   0.208
 bond charge predicted
       N       E                     dE             d eps       ncg     rms          rms(c)
DAV:   1    -0.863527541525E+03   -0.76425E-03   -0.34926E-01  1712   0.613E-01    0.212E-01
DAV:   2    -0.863527378595E+03    0.16293E-03   -0.69007E-03  1712   0.890E-02    0.121E-01
DAV:   3    -0.863528131234E+03   -0.75264E-03   -0.42136E-04  1568   0.404E-02    0.532E-02
DAV:   4    -0.863528193180E+03   -0.61947E-04   -0.11704E-04  1696   0.151E-02    0.364E-02
DAV:   5    -0.863528198925E+03   -0.57452E-05   -0.19179E-05  1312   0.101E-02
 483 F= -.86352820E+03 E0= -.86352820E+03  d E =-.141536E-02  mag=    -0.0000
 BRION: g(F)=  0.148E-02 g(S)=  0.000E+00 retain N=  2 mean eig= 0.06
 eig:   0.052  0.066
 bond charge predicted
       N       E                     dE             d eps       ncg     rms          rms(c)
DAV:   1    -0.863528334620E+03   -0.14144E-03   -0.30176E-03  1616   0.611E-02    0.191E-02
DAV:   2    -0.863528339568E+03   -0.49478E-05   -0.56831E-05  1488   0.878E-03
 484 F= -.86352834E+03 E0= -.86352834E+03  d E =-.140643E-03  mag=    -0.0000
 BRION: g(F)=  0.144E-02 g(S)=  0.000E+00 retain N=  1 mean eig= 0.20
 eig:   0.203
 bond charge predicted
       N       E                     dE             d eps       ncg     rms          rms(c)
DAV:   1    -0.863529073372E+03   -0.73875E-03   -0.39516E-01  1712   0.657E-01    0.223E-01
DAV:   2    -0.863528846849E+03    0.22652E-03   -0.77363E-03  1712   0.935E-02    0.125E-01
DAV:   3    -0.863529775360E+03   -0.92851E-03   -0.44208E-04  1568   0.414E-02    0.553E-02
DAV:   4    -0.863529841295E+03   -0.65934E-04   -0.12098E-04  1688   0.163E-02    0.374E-02
DAV:   5    -0.863529848940E+03   -0.76450E-05   -0.21975E-05  1328   0.113E-02
 485 F= -.86352985E+03 E0= -.86352985E+03  d E =-.150937E-02  mag=    -0.0000
 BRION: g(F)=  0.151E-02 g(S)=  0.000E+00 retain N=  2 mean eig= 1.13
 eig:   0.247  2.013
 bond charge predicted
       N       E                     dE             d eps       ncg     rms          rms(c)
DAV:   1    -0.863530190772E+03   -0.34948E-03   -0.23111E-02  1712   0.167E-01    0.532E-02
DAV:   2    -0.863530216051E+03   -0.25279E-04   -0.44314E-04  1736   0.246E-02    0.313E-02
DAV:   3    -0.863530225750E+03   -0.96985E-05   -0.29269E-05  1300   0.117E-02
 486 F= -.86353023E+03 E0= -.86353023E+03  d E =-.376810E-03  mag=    -0.0000
 BRION: g(F)=  0.144E-02 g(S)=  0.000E+00 retain N=  2 mean eig= 0.43
 eig:   0.425  0.425
 bond charge predicted
       N       E                     dE             d eps       ncg     rms          rms(c)
DAV:   1    -0.863530529065E+03   -0.31301E-03   -0.18608E-02  1680   0.140E-01    0.537E-02
DAV:   2    -0.863530546437E+03   -0.17372E-04   -0.37856E-04  1704   0.228E-02    0.320E-02
DAV:   3    -0.863530555767E+03   -0.93305E-05   -0.30036E-05  1288   0.113E-02
 487 F= -.86353056E+03 E0= -.86353056E+03  d E =-.330017E-03  mag=    -0.0000
 BRION: g(F)=  0.142E-02 g(S)=  0.000E+00 retain N=  2 mean eig= 0.46
 eig:   0.307  0.608
 bond charge predicted
       N       E                     dE             d eps       ncg     rms          rms(c)
DAV:   1    -0.863531362976E+03   -0.81654E-03   -0.36056E-01  1712   0.622E-01    0.217E-01
DAV:   2    -0.863531175563E+03    0.18741E-03   -0.70389E-03  1712   0.898E-02    0.125E-01
DAV:   3    -0.863531955426E+03   -0.77986E-03   -0.44606E-04  1568   0.418E-02    0.547E-02
DAV:   4    -0.863532019684E+03   -0.64258E-04   -0.12339E-04  1680   0.152E-02    0.375E-02
DAV:   5    -0.863532028058E+03   -0.83740E-05   -0.20312E-05  1328   0.103E-02
 488 F= -.86353203E+03 E0= -.86353203E+03  d E =-.147229E-02  mag=    -0.0000
 BRION: g(F)=  0.145E-02 g(S)=  0.000E+00 retain N=  3 mean eig= 1.10
 eig:   2.327  0.460  0.526
 bond charge predicted
       N       E                     dE             d eps       ncg     rms          rms(c)
DAV:   1    -0.863530818003E+03    0.12017E-02   -0.14714E-01  1712   0.402E-01    0.136E-01
DAV:   2    -0.863530767440E+03    0.50563E-04   -0.29120E-03  1712   0.580E-02    0.793E-02
DAV:   3    -0.863531063703E+03   -0.29626E-03   -0.18472E-04  1552   0.270E-02    0.346E-02
DAV:   4    -0.863531081909E+03   -0.18205E-04   -0.51520E-05  1528   0.101E-02    0.235E-02
DAV:   5    -0.863531084432E+03   -0.25236E-05   -0.83580E-06  1224   0.669E-03
 489 F= -.86353108E+03 E0= -.86353108E+03  d E =0.943625E-03  mag=    -0.0000
 BRION: g(F)=  0.146E-02 g(S)=  0.000E+00 retain N=  4 mean eig= 1.84
 eig:   5.319  1.399  0.448  0.182
 bond charge predicted
       N       E                     dE             d eps       ncg     rms          rms(c)
DAV:   1    -0.863527144665E+03    0.39372E-02   -0.90751E-01  1712   0.989E-01    0.338E-01
DAV:   2    -0.863526577088E+03    0.56758E-03   -0.17604E-02  1720   0.140E-01    0.198E-01
DAV:   3    -0.863528565419E+03   -0.19883E-02   -0.10824E-03  1624   0.640E-02    0.874E-02
DAV:   4    -0.863528716345E+03   -0.15093E-03   -0.31862E-04  1768   0.249E-02    0.599E-02
DAV:   5    -0.863528732510E+03   -0.16164E-04   -0.49597E-05  1432   0.165E-02    0.233E-02
DAV:   6    -0.863528745258E+03   -0.12748E-04   -0.27410E-05  1296   0.106E-02    0.598E-03
DAV:   7    -0.863528745545E+03   -0.28679E-06   -0.25665E-06  1312   0.278E-03
 490 F= -.86352875E+03 E0= -.86352875E+03  d E =0.233889E-02  mag=    -0.0000
 BRION: g(F)=  0.146E-02 g(S)=  0.000E+00 retain N=  4 mean eig= 2.37
 eig:   4.616  4.616  0.014  0.237
 bond charge predicted
       N       E                     dE             d eps       ncg     rms          rms(c)
DAV:   1    -0.863522203032E+03    0.65422E-02   -0.18451E+00  1712   0.141E+00    0.485E-01
DAV:   2    -0.863521171435E+03    0.10316E-02   -0.36204E-02  1756   0.200E-01    0.287E-01
DAV:   3    -0.863525073409E+03   -0.39020E-02   -0.22476E-03  1720   0.914E-02    0.126E-01
DAV:   4    -0.863525353132E+03   -0.27972E-03   -0.67693E-04  1792   0.351E-02    0.869E-02
DAV:   5    -0.863525397638E+03   -0.44506E-04   -0.99579E-05  1616   0.231E-02    0.335E-02
DAV:   6    -0.863525433354E+03   -0.35716E-04   -0.53965E-05  1400   0.146E-02    0.837E-03
DAV:   7    -0.863525433690E+03   -0.33611E-06   -0.47230E-06  1360   0.370E-03
 491 F= -.86352543E+03 E0= -.86352543E+03  d E =0.331185E-02  mag=    -0.0000
 BRION: g(F)=  0.144E-02 g(S)=  0.000E+00 retain N=  2 mean eig= 1.32
 eig:   0.355  2.286
 bond charge predicted
       N       E                     dE             d eps       ncg     rms          rms(c)
DAV:   1    -0.863525460372E+03   -0.27018E-04   -0.17880E+00  1712   0.139E+00    0.473E-01
DAV:   2    -0.863524151355E+03    0.13090E-02   -0.34529E-02  1744   0.196E-01    0.276E-01
DAV:   3    -0.863528263318E+03   -0.41120E-02   -0.20276E-03  1728   0.870E-02    0.121E-01
DAV:   4    -0.863528522714E+03   -0.25940E-03   -0.60466E-04  1800   0.320E-02    0.830E-02
DAV:   5    -0.863528617253E+03   -0.94539E-04   -0.97587E-05  1596   0.219E-02    0.324E-02
DAV:   6    -0.863528651695E+03   -0.34442E-04   -0.48397E-05  1392   0.136E-02    0.813E-03
DAV:   7    -0.863528651801E+03   -0.10645E-06   -0.46462E-06  1328   0.377E-03
 492 F= -.86352865E+03 E0= -.86352865E+03  d E =-.321811E-02  mag=    -0.0000
 BRION: g(F)=  0.180E-02 g(S)=  0.000E+00 retain N=  3 mean eig= 1.57
 eig:   4.014  0.355  0.355
 bond charge predicted
       N       E                     dE             d eps       ncg     rms          rms(c)
DAV:   1    -0.863527835542E+03    0.81615E-03   -0.85949E-02  1712   0.305E-01    0.104E-01
DAV:   2    -0.863527826535E+03    0.90070E-05   -0.16922E-03  1744   0.432E-02    0.614E-02
DAV:   3    -0.863527968229E+03   -0.14169E-03   -0.11475E-04  1536   0.215E-02    0.273E-02
DAV:   4    -0.863527979731E+03   -0.11501E-04   -0.31893E-05  1608   0.757E-03    0.188E-02
DAV:   5    -0.863527979688E+03    0.43074E-07   -0.53318E-06  1240   0.527E-03
 493 F= -.86352798E+03 E0= -.86352798E+03  d E =0.672114E-03  mag=    -0.0000
 BRION: g(F)=  0.141E-02 g(S)=  0.000E+00 retain N=  2 mean eig= 2.40
 eig:   0.250  4.549
 bond charge predicted
       N       E                     dE             d eps       ncg     rms          rms(c)
DAV:   1    -0.863528217096E+03   -0.23737E-03   -0.14052E-02  1712   0.141E-01    0.400E-02
DAV:   2    -0.863528239542E+03   -0.22446E-04   -0.29877E-04  1712   0.215E-02    0.225E-02
DAV:   3    -0.863528244753E+03   -0.52114E-05   -0.16951E-05  1248   0.903E-03
 494 F= -.86352824E+03 E0= -.86352824E+03  d E =-.265066E-03  mag=    -0.0000
 BRION: g(F)=  0.144E-02 g(S)=  0.000E+00 retain N=  3 mean eig= 2.33
 eig:   6.297  0.346  0.346
 bond charge predicted
       N       E                     dE             d eps       ncg     rms          rms(c)
DAV:   1    -0.863528322241E+03   -0.82699E-04   -0.99780E-04  1616   0.363E-02    0.154E-02
DAV:   2    -0.863528323267E+03   -0.10256E-05   -0.21700E-05  1392   0.678E-03
 495 F= -.86352832E+03 E0= -.86352832E+03  d E =-.785133E-04  mag=    -0.0000
 BRION: g(F)=  0.145E-02 g(S)=  0.000E+00 retain N=  3 mean eig= 1.30
 eig:   3.238  0.148  0.509
 bond charge predicted
       N       E                     dE             d eps       ncg     rms          rms(c)
DAV:   1    -0.863528551834E+03   -0.22959E-03   -0.62387E-02  1712   0.351E-01    0.755E-02
DAV:   2    -0.863528597427E+03   -0.45593E-04   -0.13400E-03  1848   0.559E-02    0.445E-02
DAV:   3    -0.863528631930E+03   -0.34504E-04   -0.69896E-05  1680   0.200E-02    0.234E-02
DAV:   4    -0.863528625870E+03    0.60605E-05   -0.26291E-05  1664   0.140E-02
 496 F= -.86352863E+03 E0= -.86352863E+03  d E =-.302603E-03  mag=    -0.0000
 BRION: g(F)=  0.292E-02 g(S)=  0.000E+00 retain N=  3 mean eig= 1.61
 eig:   4.284  0.268  0.268
 bond charge predicted
       N       E                     dE             d eps       ncg     rms          rms(c)
DAV:   1    -0.863527510459E+03    0.11215E-02   -0.14361E-01  1712   0.440E-01    0.125E-01
DAV:   2    -0.863527607627E+03   -0.97168E-04   -0.33792E-03  2072   0.757E-02    0.708E-02
DAV:   3    -0.863527751047E+03   -0.14342E-03   -0.15449E-04  1656   0.256E-02    0.341E-02
DAV:   4    -0.863527756677E+03   -0.56305E-05   -0.59580E-05  1832   0.157E-02
 497 F= -.86352776E+03 E0= -.86352776E+03  d E =0.869193E-03  mag=    -0.0000
 BRION: g(F)=  0.449E-02 g(S)=  0.000E+00 retain N=  3 mean eig= 0.82
 eig:   2.106  0.175  0.175
 bond charge predicted
       N       E                     dE             d eps       ncg     rms          rms(c)
DAV:   1    -0.863528653420E+03   -0.90237E-03   -0.37069E-01  1712   0.640E-01    0.209E-01
DAV:   2    -0.863528658671E+03   -0.52508E-05   -0.80037E-03  1976   0.102E-01    0.119E-01
DAV:   3    -0.863529306958E+03   -0.64829E-03   -0.41247E-04  1584   0.388E-02    0.528E-02
DAV:   4    -0.863529352452E+03   -0.45494E-04   -0.12203E-04  1928   0.181E-02    0.356E-02
DAV:   5    -0.863529353577E+03   -0.11248E-05   -0.20754E-05  1328   0.112E-02
 498 F= -.86352935E+03 E0= -.86352935E+03  d E =-.159690E-02  mag=    -0.0000
 BRION: g(F)=  0.219E-02 g(S)=  0.000E+00 retain N=  3 mean eig= 2.62
 eig:   0.220  0.220  7.424
 bond charge predicted
       N       E                     dE             d eps       ncg     rms          rms(c)
DAV:   1    -0.863529835038E+03   -0.48259E-03   -0.41509E-02  1712   0.256E-01    0.692E-02
DAV:   2    -0.863529875013E+03   -0.39975E-04   -0.91459E-04  1712   0.396E-02    0.412E-02
DAV:   3    -0.863529901906E+03   -0.26894E-04   -0.49198E-05  1384   0.153E-02    0.199E-02
DAV:   4    -0.863529905010E+03   -0.31034E-05   -0.18790E-05  1456   0.795E-03
 499 F= -.86352991E+03 E0= -.86352991E+03  d E =-.551433E-03  mag=    -0.0000
 BRION: g(F)=  0.143E-02 g(S)=  0.000E+00 retain N=  3 mean eig= 1.49
 eig:   4.079  0.189  0.189
 bond charge predicted
       N       E                     dE             d eps       ncg     rms          rms(c)
DAV:   1    -0.863530664106E+03   -0.76220E-03   -0.30471E-01  1712   0.581E-01    0.195E-01
DAV:   2    -0.863530534844E+03    0.12926E-03   -0.59800E-03  1712   0.832E-02    0.113E-01
DAV:   3    -0.863531183420E+03   -0.64858E-03   -0.36114E-04  1568   0.382E-02    0.497E-02
DAV:   4    -0.863531233265E+03   -0.49845E-04   -0.10325E-04  1656   0.145E-02    0.338E-02
DAV:   5    -0.863531236934E+03   -0.36684E-05   -0.17023E-05  1320   0.102E-02
 500 F= -.86353124E+03 E0= -.86353124E+03  d E =-.133192E-02  mag=    -0.0000
 BRION: g(F)=  0.154E-02 g(S)=  0.000E+00 retain N=  4 mean eig= 1.17
 eig:   4.088  0.167  0.167  0.254
--------------------------------------------------------
>>>  Job finished at Fri Jun 24 06:06:12 EDT 2022
