>>>  VASP 5.4.4 with BEEF-vdw and vtst
--------------------------------------------------------
>>>  Job information
     SLURM_JOBID=8867953
     SLURM_JOB_NODELIST=cpn-q08-39-01
     SLURM_NNODES=1
     SLURMTMPDIR=/scratch/8867953
     working directory = /projects/academic/ericwalk/ruthbell/Ads_Ag-SSZ13/H2S_gas/PBE
--------------------------------------------------------
>>>  Module information
--------------------------------------------------------
>>>  Running Configuration
NPROCS=16
--------------------------------------------------------
>>>  Job started at Thu Jul  7 15:38:35 EDT 2022
--------------------------------------------------------
 running on   16 total cores
 distrk:  each k-point on   16 cores,    1 groups
 distr:  one band on    4 cores,    4 groups
 using from now: INCAR     
 vasp.5.4.4.18Apr17-6-g9f103f2a35 (build Dec 31 2018 11:41:54) complex          
  
 POSCAR found type information on POSCAR  S  H 
 POSCAR found :  2 types and       3 ions
 scaLAPACK will be used

 ----------------------------------------------------------------------------- 
|                                                                             |
|  ADVICE TO THIS USER RUNNING 'VASP/VAMP'   (HEAR YOUR MASTER'S VOICE ...):  |
|                                                                             |
|      You have a (more or less) 'small supercell' and for smaller cells      |
|      it is recommended  to use the reciprocal-space projection scheme!      |
|      The real space optimization is not  efficient for small cells and it   |
|      is also less accurate ...                                              |
|      Therefore set LREAL=.FALSE. in the  INCAR file                         |
|                                                                             |
 ----------------------------------------------------------------------------- 

 LDA part: xc-table for Pade appr. of Perdew
 POSCAR found type information on POSCAR  S  H 
 POSCAR found :  2 types and       3 ions
 POSCAR, INCAR and KPOINTS ok, starting setup
 FFT: planning ...
 WAVECAR not read
 entering main loop
       N       E                     dE             d eps       ncg     rms          rms(c)
DAV:   1     0.388477062266E+02    0.38848E+02   -0.12804E+03    64   0.215E+02
DAV:   2     0.229540678595E+00   -0.38618E+02   -0.35760E+02    72   0.545E+01
DAV:   3    -0.792132136830E+01   -0.81509E+01   -0.81370E+01    68   0.284E+01
DAV:   4    -0.833658308702E+01   -0.41526E+00   -0.41482E+00    64   0.672E+00
DAV:   5    -0.834137264350E+01   -0.47896E-02   -0.47895E-02    68   0.811E-01    0.794E+00
DAV:   6    -0.258298756510E+01    0.57584E+01   -0.18217E+01    52   0.165E+01    0.361E+00
DAV:   7    -0.761758787744E+01   -0.50346E+01   -0.34000E+00    56   0.756E+00    0.192E+00
DAV:   8    -0.956123715309E+01   -0.19436E+01   -0.91565E-01    72   0.350E+00    0.863E-01
DAV:   9    -0.103468903818E+02   -0.78565E+00   -0.31981E-01    56   0.211E+00    0.365E-01
DAV:  10    -0.106048926906E+02   -0.25800E+00   -0.48355E-02    64   0.871E-01    0.227E-01
DAV:  11    -0.109437262392E+02   -0.33883E+00   -0.28561E-02    48   0.573E-01    0.111E-01
DAV:  12    -0.110932750334E+02   -0.14955E+00   -0.16784E-02    72   0.348E-01    0.600E-02
DAV:  13    -0.111806466981E+02   -0.87372E-01   -0.52389E-03    60   0.214E-01    0.267E-02
DAV:  14    -0.111866586511E+02   -0.60120E-02   -0.37133E-04    52   0.891E-02    0.179E-02
DAV:  15    -0.111907057600E+02   -0.40471E-02   -0.30322E-04    52   0.700E-02    0.108E-02
DAV:  16    -0.111900922830E+02    0.61348E-03   -0.29410E-04    48   0.607E-02    0.862E-03
DAV:  17    -0.111908623713E+02   -0.77009E-03   -0.60412E-05    64   0.290E-02    0.629E-03
DAV:  18    -0.111937673856E+02   -0.29050E-02   -0.69730E-05    52   0.296E-02    0.317E-03
DAV:  19    -0.111941973778E+02   -0.42999E-03   -0.10387E-05    52   0.126E-02    0.158E-03
DAV:  20    -0.111942431485E+02   -0.45771E-04   -0.22668E-06    56   0.659E-03    0.109E-03
DAV:  21    -0.111942406343E+02    0.25142E-05   -0.17988E-06    56   0.558E-03
   1 F= -.11194241E+02 E0= -.11194241E+02  d E =-.111942E+02  mag=     0.0006
 BRION: g(F)=  0.621E-02 g(S)=  0.000E+00
 bond charge predicted
       N       E                     dE             d eps       ncg     rms          rms(c)
DAV:   1    -0.111929525409E+02    0.12906E-02   -0.26288E-01    52   0.250E+00    0.144E-01
DAV:   2    -0.111935672014E+02   -0.61466E-03   -0.10068E-02    48   0.563E-01    0.887E-02
DAV:   3    -0.111934555926E+02    0.11161E-03   -0.35965E-04    60   0.100E-01    0.374E-02
DAV:   4    -0.111934816288E+02   -0.26036E-04   -0.17628E-04    48   0.600E-02    0.893E-03
DAV:   5    -0.111934859040E+02   -0.42752E-05   -0.31255E-05    48   0.281E-02
   2 F= -.11193486E+02 E0= -.11193486E+02  d E =0.754730E-03  mag=     0.0001
 BRION: g(F)=  0.124E-01 g(S)=  0.000E+00 retain N=  1 mean eig= 0.41
 eig:   0.415
 bond charge predicted
       N       E                     dE             d eps       ncg     rms          rms(c)
DAV:   1    -0.111957821558E+02   -0.23005E-02   -0.10163E-01    48   0.150E+00    0.833E-02
DAV:   2    -0.111960008035E+02   -0.21865E-03   -0.35874E-03    56   0.349E-01    0.496E-02
DAV:   3    -0.111959621483E+02    0.38655E-04   -0.10326E-04    48   0.555E-02    0.202E-02
DAV:   4    -0.111959643475E+02   -0.21992E-05   -0.45359E-05    48   0.313E-02
   3 F= -.11195964E+02 E0= -.11195964E+02  d E =-.247844E-02  mag=     0.0000
 BRION: g(F)=  0.136E-03 g(S)=  0.000E+00 retain N=  1 mean eig= 0.40
 eig:   0.397
 bond charge predicted
       N       E                     dE             d eps       ncg     rms          rms(c)
DAV:   1    -0.111960651915E+02   -0.10304E-03   -0.18175E-03    52   0.260E-01    0.121E-02
DAV:   2    -0.111960648233E+02    0.36819E-06   -0.25420E-05    48   0.301E-02
   4 F= -.11196065E+02 E0= -.11196065E+02  d E =-.100476E-03  mag=     0.0000
 BRION: g(F)=  0.494E-04 g(S)=  0.000E+00 retain N=  2 mean eig= 0.89
 eig:   0.448  1.328
 bond charge predicted
       N       E                     dE             d eps       ncg     rms          rms(c)
DAV:   1    -0.111961277290E+02   -0.62538E-04   -0.51010E-03    60   0.429E-01    0.205E-02
DAV:   2    -0.111961286185E+02   -0.88949E-06   -0.99795E-05    52   0.599E-02
   5 F= -.11196129E+02 E0= -.11196129E+02  d E =-.637953E-04  mag=     0.0000
 BRION: g(F)=  0.120E-04 g(S)=  0.000E+00 retain N=  3 mean eig= 2.28
 eig:   0.433  3.198  3.198
 bond charge predicted
       N       E                     dE             d eps       ncg     rms          rms(c)
DAV:   1    -0.111961318359E+02   -0.41068E-05   -0.13498E-04    52   0.619E-02    0.570E-03
DAV:   2    -0.111961334825E+02   -0.16466E-05   -0.86754E-06    56   0.196E-02
   6 F= -.11196133E+02 E0= -.11196133E+02  d E =-.486394E-05  mag=     0.0000
 BRION: g(F)=  0.164E-06 g(S)=  0.000E+00 retain N=  3 mean eig= 2.76
 eig:   3.859  3.859  0.563
 reached required accuracy - stopping structural energy minimisation
--------------------------------------------------------
>>>  Job finished at Thu Jul  7 15:40:34 EDT 2022
