>>>  VASP 5.4.4 with BEEF-vdw and vtst
--------------------------------------------------------
>>>  Job information
     SLURM_JOBID=8708642
     SLURM_JOB_NODELIST=cpn-q07-17-01
     SLURM_NNODES=1
     SLURMTMPDIR=/scratch/8708642
     working directory = /projects/academic/ericwalk/ruthbell/Ads_Ag-SSZ13/SULPHURS/SO2-O/PBE
--------------------------------------------------------
>>>  Module information
--------------------------------------------------------
>>>  Running Configuration
NPROCS=16
--------------------------------------------------------
>>>  Job started at Thu Jun 23 12:20:41 EDT 2022
--------------------------------------------------------
 running on   16 total cores
 distrk:  each k-point on   16 cores,    1 groups
 distr:  one band on    4 cores,    4 groups
 using from now: INCAR     
 vasp.5.4.4.18Apr17-6-g9f103f2a35 (build Dec 31 2018 11:41:54) complex          
  
 POSCAR found type information on POSCAR  O  Si Al Ag S 
 POSCAR found :  5 types and     114 ions
 scaLAPACK will be used
 LDA part: xc-table for Pade appr. of Perdew
 POSCAR found type information on POSCAR  O  Si Al Ag S 
 POSCAR found :  5 types and     114 ions
 POSCAR, INCAR and KPOINTS ok, starting setup
 FFT: planning ...
 WAVECAR not read
 entering main loop
       N       E                     dE             d eps       ncg     rms          rms(c)
DAV:   1     0.446717048906E+04    0.44672E+04   -0.26128E+05  1792   0.103E+03
DAV:   2    -0.406010385977E+03   -0.48732E+04   -0.46835E+04  2104   0.297E+02
DAV:   3    -0.938156789001E+03   -0.53215E+03   -0.52828E+03  2128   0.103E+02
DAV:   4    -0.948879395629E+03   -0.10723E+02   -0.10685E+02  2144   0.161E+01
DAV:   5    -0.949163137212E+03   -0.28374E+00   -0.28342E+00  2184   0.238E+00    0.876E+01
DAV:   6    -0.598353092106E+03    0.35081E+03   -0.71706E+02  2016   0.390E+01    0.283E+01
DAV:   7    -0.687543838932E+03   -0.89191E+02   -0.85585E+01  2056   0.125E+01    0.194E+01
DAV:   8    -0.756902076352E+03   -0.69358E+02   -0.30387E+01  2032   0.802E+00    0.110E+01
DAV:   9    -0.831938601138E+03   -0.75037E+02   -0.55575E+01  2032   0.883E+00    0.489E+00
DAV:  10    -0.845239381594E+03   -0.13301E+02   -0.76779E+00  2104   0.357E+00    0.349E+00
DAV:  11    -0.861693106981E+03   -0.16454E+02   -0.11137E+01  1904   0.394E+00    0.165E+00
DAV:  12    -0.863726404457E+03   -0.20333E+01   -0.10256E+00  1960   0.132E+00    0.928E-01
DAV:  13    -0.864825848259E+03   -0.10994E+01   -0.46545E-01  1920   0.904E-01    0.431E-01
DAV:  14    -0.864976672269E+03   -0.15082E+00   -0.56960E-02  1960   0.341E-01    0.273E-01
DAV:  15    -0.864996010522E+03   -0.19338E-01   -0.15390E-02  2048   0.255E-01    0.145E-01
DAV:  16    -0.865002081175E+03   -0.60707E-02   -0.49590E-03  2032   0.148E-01    0.112E-01
DAV:  17    -0.865006945218E+03   -0.48640E-02   -0.22160E-03  2120   0.109E-01    0.381E-02
DAV:  18    -0.865011546803E+03   -0.46016E-02   -0.14923E-03  2008   0.805E-02    0.465E-02
DAV:  19    -0.865012235770E+03   -0.68897E-03   -0.41431E-04  2040   0.463E-02    0.295E-02
DAV:  20    -0.865012680952E+03   -0.44518E-03   -0.25770E-04  2080   0.352E-02    0.109E-02
DAV:  21    -0.865013192046E+03   -0.51109E-03   -0.14658E-04  1912   0.259E-02    0.110E-02
DAV:  22    -0.865013349948E+03   -0.15790E-03   -0.73124E-05  1816   0.188E-02    0.605E-03
DAV:  23    -0.865013438378E+03   -0.88430E-04   -0.36865E-05  1776   0.126E-02    0.276E-03
DAV:  24    -0.865013486264E+03   -0.47887E-04   -0.16670E-05  1592   0.825E-03    0.231E-03
DAV:  25    -0.865013511779E+03   -0.25515E-04   -0.58685E-06  1488   0.417E-03    0.172E-03
DAV:  26    -0.865013524717E+03   -0.12938E-04   -0.39304E-06  1440   0.314E-03    0.134E-03
DAV:  27    -0.865013528921E+03   -0.42032E-05   -0.25797E-06  1448   0.251E-03
   1 F= -.86501353E+03 E0= -.86501353E+03  d E =-.865014E+03  mag=     0.0001
 BRION: g(F)=  0.842E+02 g(S)=  0.000E+00
 bond charge predicted
       N       E                     dE             d eps       ncg     rms          rms(c)
DAV:   1    -0.799852297423E+03    0.65161E+02   -0.54831E+03  1848   0.861E+01    0.146E+01
DAV:   2    -0.851006413153E+03   -0.51154E+02   -0.46773E+02  1944   0.251E+01    0.204E+01
DAV:   3    -0.849292330878E+03    0.17141E+01   -0.20866E+01  2112   0.851E+00    0.170E+01
DAV:   4    -0.847304916475E+03    0.19874E+01   -0.30451E+00  2184   0.475E+00    0.159E+01
DAV:   5    -0.847379296538E+03   -0.74380E-01   -0.47940E+00  2368   0.256E+00    0.135E+01
DAV:   6    -0.846145620954E+03    0.12337E+01   -0.96324E-01  2456   0.222E+00    0.914E+00
DAV:   7    -0.846387761566E+03   -0.24214E+00   -0.17904E+00  2048   0.184E+00    0.147E+01
DAV:   8    -0.846408319863E+03   -0.20558E-01   -0.30448E-01  1992   0.707E-01    0.141E+01
DAV:   9    -0.846398022891E+03    0.10297E-01   -0.30233E-02  2064   0.228E-01    0.139E+01
DAV:  10    -0.846638531774E+03   -0.24051E+00   -0.62334E-01  2056   0.704E-01    0.125E+01
DAV:  11    -0.846223335241E+03    0.41520E+00   -0.11721E+00  2160   0.129E+00    0.929E+00
DAV:  12    -0.845756629601E+03    0.46671E+00   -0.16095E+00  2168   0.135E+00    0.571E+00
DAV:  13    -0.846038088227E+03   -0.28146E+00   -0.49616E-01  2000   0.591E-01    0.592E+00
DAV:  14    -0.845990315229E+03    0.47773E-01   -0.16403E-02  1976   0.184E-01    0.594E+00
DAV:  15    -0.845939049129E+03    0.51266E-01   -0.51108E-02  1992   0.181E-01    0.615E+00
DAV:  16    -0.845922099257E+03    0.16950E-01   -0.11530E-01  2032   0.251E-01    0.621E+00
DAV:  17    -0.846000051626E+03   -0.77952E-01   -0.77692E-02  2000   0.289E-01    0.620E+00
DAV:  18    -0.846053228176E+03   -0.53177E-01   -0.38461E-01  1984   0.550E-01    0.589E+00
DAV:  19    -0.846465144963E+03   -0.41192E+00   -0.27714E+00  2024   0.112E+00    0.587E+00
DAV:  20    -0.846332523520E+03    0.13262E+00   -0.24095E-01  2080   0.595E-01    0.703E+00
DAV:  21    -0.846338319446E+03   -0.57959E-02   -0.20025E-02  2016   0.196E-01    0.690E+00
DAV:  22    -0.846499624666E+03   -0.16131E+00   -0.16514E-01  1944   0.504E-01    0.613E+00
DAV:  23    -0.846723033330E+03   -0.22341E+00   -0.14834E-01  2024   0.643E-01    0.111E+01
DAV:  24    -0.846691419730E+03    0.31614E-01   -0.12805E-01  1888   0.481E-01    0.973E+00
DAV:  25    -0.846707682164E+03   -0.16262E-01   -0.14987E-02  2064   0.170E-01    0.101E+01
DAV:  26    -0.846689890661E+03    0.17792E-01   -0.29591E-02  2024   0.281E-01    0.850E+00
DAV:  27    -0.846688390163E+03    0.15005E-02   -0.23627E-02  2096   0.201E-01    0.776E+00
DAV:  28    -0.846695911428E+03   -0.75213E-02   -0.19918E-03  1896   0.721E-02    0.764E+00
DAV:  29    -0.846696520749E+03   -0.60932E-03   -0.11159E-04  2032   0.179E-02    0.759E+00
DAV:  30    -0.846650061797E+03    0.46459E-01   -0.19501E-02  1952   0.151E-01    0.682E+00
DAV:  31    -0.846647002281E+03    0.30595E-02   -0.20196E-02  1888   0.194E-01    0.920E+00
DAV:  32    -0.846654821322E+03   -0.78190E-02   -0.10002E-02  1864   0.127E-01    0.930E+00
DAV:  33    -0.846642551181E+03    0.12270E-01   -0.45714E-02  2032   0.313E-01    0.637E+00
DAV:  34    -0.846589264045E+03    0.53287E-01   -0.61306E-02  1832   0.304E-01    0.552E+00
DAV:  35    -0.846534422878E+03    0.54841E-01   -0.23735E-02  1888   0.209E-01    0.564E+00
DAV:  36    -0.846529287635E+03    0.51352E-02   -0.16659E-02  2056   0.236E-01    0.461E+00
DAV:  37    -0.846497822124E+03    0.31466E-01   -0.21160E-02  2024   0.213E-01    0.370E+00
DAV:  38    -0.846649156492E+03   -0.15133E+00   -0.12441E-01  1944   0.563E-01    0.495E+00
DAV:  39    -0.846457693920E+03    0.19146E+00   -0.13327E-01  2008   0.527E-01    0.378E+00
DAV:  40    -0.846501803801E+03   -0.44110E-01   -0.36838E-02  2088   0.265E-01    0.341E+00
DAV:  41    -0.846555387281E+03   -0.53583E-01   -0.22867E-02  2048   0.247E-01    0.356E+00
DAV:  42    -0.846545167038E+03    0.10220E-01   -0.16906E-02  2024   0.188E-01    0.351E+00
DAV:  43    -0.846543318365E+03    0.18487E-02   -0.48396E-03  2072   0.102E-01    0.354E+00
DAV:  44    -0.846549986480E+03   -0.66681E-02   -0.13060E-03  1912   0.579E-02    0.350E+00
DAV:  45    -0.846555801651E+03   -0.58152E-02   -0.76151E-04  1928   0.413E-02    0.354E+00
DAV:  46    -0.846534787836E+03    0.21014E-01   -0.69275E-02  2040   0.351E-01    0.412E+00
DAV:  47    -0.846522731478E+03    0.12056E-01   -0.34703E-02  2016   0.260E-01    0.467E+00
DAV:  48    -0.846545279209E+03   -0.22548E-01   -0.17931E-02  2048   0.209E-01    0.485E+00
DAV:  49    -0.846540027042E+03    0.52522E-02   -0.30201E-03  1904   0.923E-02    0.474E+00
DAV:  50    -0.846548902191E+03   -0.88751E-02   -0.19074E-03  1936   0.598E-02    0.484E+00
DAV:  51    -0.846510539683E+03    0.38363E-01   -0.48906E-02  1944   0.298E-01    0.511E+00
DAV:  52    -0.846430063647E+03    0.80476E-01   -0.14945E-01  1992   0.500E-01    0.526E+00
DAV:  53    -0.846441352007E+03   -0.11288E-01   -0.34630E-02  1880   0.257E-01    0.532E+00
DAV:  54    -0.846446912693E+03   -0.55607E-02   -0.63308E-03  2080   0.103E-01    0.532E+00
DAV:  55    -0.846513991012E+03   -0.67078E-01   -0.40320E-02  1968   0.216E-01    0.543E+00
DAV:  56    -0.846599020655E+03   -0.85030E-01   -0.65924E-02  2112   0.325E-01    0.576E+00
DAV:  57    -0.846417010167E+03    0.18201E+00   -0.20966E-01  1968   0.490E-01    0.588E+00
DAV:  58    -0.846373255423E+03    0.43755E-01   -0.26219E-01  1992   0.495E-01    0.565E+00
DAV:  59    -0.846397967198E+03   -0.24712E-01   -0.38724E-02  1864   0.333E-01    0.582E+00
DAV:  60    -0.846406873648E+03   -0.89064E-02   -0.24027E-02  2000   0.225E-01    0.571E+00
DAV:  61    -0.846449160468E+03   -0.42287E-01   -0.48304E-02  2088   0.290E-01    0.510E+00
DAV:  62    -0.846425458200E+03    0.23702E-01   -0.34742E-01  1968   0.744E-01    0.500E+00
DAV:  63    -0.846489727141E+03   -0.64269E-01   -0.11301E-01  1952   0.472E-01    0.493E+00
DAV:  64    -0.846534349388E+03   -0.44622E-01   -0.71153E-02  2024   0.350E-01    0.509E+00
DAV:  65    -0.846497949646E+03    0.36400E-01   -0.45251E-02  1952   0.268E-01    0.491E+00
DAV:  66    -0.846433211150E+03    0.64738E-01   -0.15312E-01  1984   0.465E-01    0.430E+00
DAV:  67    -0.846465549070E+03   -0.32338E-01   -0.14428E-01  1952   0.479E-01    0.333E+00
DAV:  68    -0.846494970636E+03   -0.29422E-01   -0.46057E-02  1944   0.279E-01    0.259E+00
DAV:  69    -0.846578510829E+03   -0.83540E-01   -0.98848E-02  1984   0.395E-01    0.300E+00
DAV:  70    -0.846633287818E+03   -0.54777E-01   -0.60733E-02  2008   0.355E-01    0.305E+00
DAV:  71    -0.846612816062E+03    0.20472E-01   -0.21848E-02  2000   0.272E-01    0.281E+00
DAV:  72    -0.846655193062E+03   -0.42377E-01   -0.45545E-02  1952   0.322E-01    0.266E+00
DAV:  73    -0.846656170885E+03   -0.97782E-03   -0.73819E-03  2064   0.108E-01    0.264E+00
DAV:  74    -0.846642982317E+03    0.13189E-01   -0.54673E-03  1864   0.128E-01    0.276E+00
DAV:  75    -0.846630382989E+03    0.12599E-01   -0.77779E-03  2080   0.139E-01    0.291E+00
DAV:  76    -0.846643650257E+03   -0.13267E-01   -0.78330E-03  1896   0.145E-01    0.277E+00
DAV:  77    -0.846648765124E+03   -0.51149E-02   -0.17130E-01  2008   0.666E-01    0.264E+00
DAV:  78    -0.846685936019E+03   -0.37171E-01   -0.66753E-02  2008   0.349E-01    0.261E+00
DAV:  79    -0.846717170311E+03   -0.31234E-01   -0.55077E-01  2112   0.120E+00    0.713E+00
DAV:  80    -0.846710511836E+03    0.66585E-02   -0.92949E-02  1856   0.481E-01    0.693E+00
DAV:  81    -0.846644349293E+03    0.66163E-01   -0.64386E-03  2032   0.131E-01    0.697E+00
DAV:  82    -0.846674461041E+03   -0.30112E-01   -0.71698E-02  2112   0.377E-01    0.678E+00
DAV:  83    -0.846680047494E+03   -0.55865E-02   -0.10434E-02  1984   0.139E-01    0.704E+00
DAV:  84    -0.846680643070E+03   -0.59558E-03   -0.69731E-03  2000   0.122E-01    0.748E+00
DAV:  85    -0.846684154765E+03   -0.35117E-02   -0.13728E-02  2080   0.170E-01    0.702E+00
DAV:  86    -0.846709006843E+03   -0.24852E-01   -0.41167E-02  1984   0.286E-01    0.695E+00
DAV:  87    -0.846679295511E+03    0.29711E-01   -0.21789E-02  2056   0.207E-01    0.758E+00
DAV:  88    -0.846657197211E+03    0.22098E-01   -0.24677E-02  2040   0.232E-01    0.775E+00
DAV:  89    -0.846647974229E+03    0.92230E-02   -0.75434E-03  2064   0.117E-01    0.784E+00
DAV:  90    -0.846622832510E+03    0.25142E-01   -0.80690E-03  2016   0.132E-01    0.762E+00
DAV:  91    -0.846607524968E+03    0.15308E-01   -0.24626E-03  2024   0.643E-02    0.761E+00
DAV:  92    -0.846607037854E+03    0.48711E-03   -0.10465E-01  2016   0.485E-01    0.725E+00
DAV:  93    -0.846645996774E+03   -0.38959E-01   -0.38493E-02  2096   0.253E-01    0.723E+00
DAV:  94    -0.846663519907E+03   -0.17523E-01   -0.58062E-03  2104   0.103E-01    0.735E+00
DAV:  95    -0.846675766907E+03   -0.12247E-01   -0.14372E-03  2040   0.511E-02    0.731E+00
DAV:  96    -0.846677738037E+03   -0.19711E-02   -0.51237E-03  2056   0.884E-02    0.740E+00
DAV:  97    -0.846631841279E+03    0.45897E-01   -0.90164E-02  2032   0.378E-01    0.732E+00
DAV:  98    -0.846676222583E+03   -0.44381E-01   -0.80219E-03  1928   0.127E-01    0.732E+00
DAV:  99    -0.846685267814E+03   -0.90452E-02   -0.21798E-03  2152   0.845E-02    0.747E+00
DAV: 100    -0.846684644879E+03    0.62293E-03   -0.12247E-03  2040   0.520E-02
   2 F= -.84668464E+03 E0= -.84667758E+03  d E =0.183289E+02  mag=    -0.3243
 BRION: g(F)=  0.283E+03 g(S)=  0.000E+00 retain N=  1 mean eig= 0.29
 eig:   0.295
 bond charge predicted
       N       E                     dE             d eps       ncg     rms          rms(c)
DAV:   1    -0.828266080746E+03    0.18419E+02   -0.44386E+03  1848   0.584E+01    0.155E+01
DAV:   2    -0.857285054131E+03   -0.29019E+02   -0.23881E+02  2056   0.204E+01    0.180E+01
DAV:   3    -0.853914165167E+03    0.33709E+01   -0.25454E+01  1968   0.711E+00    0.152E+01
DAV:   4    -0.853825322904E+03    0.88842E-01   -0.34042E+00  2120   0.285E+00    0.114E+01
DAV:   5    -0.853512639915E+03    0.31268E+00   -0.17316E+00  1992   0.116E+00    0.107E+01
DAV:   6    -0.853495160842E+03    0.17479E-01   -0.25464E-01  2104   0.521E-01    0.888E+00
DAV:   7    -0.853534011978E+03   -0.38851E-01   -0.34048E-02  2064   0.184E-01    0.987E+00
DAV:   8    -0.853549162726E+03   -0.15151E-01   -0.30528E-02  2072   0.185E-01    0.974E+00
DAV:   9    -0.853592143409E+03   -0.42981E-01   -0.95195E-02  2072   0.447E-01    0.826E+00
DAV:  10    -0.853642534873E+03   -0.50391E-01   -0.29814E-01  1968   0.561E-01    0.670E+00
DAV:  11    -0.853707068485E+03   -0.64534E-01   -0.27000E-01  2200   0.851E-01    0.520E+00
DAV:  12    -0.853647445159E+03    0.59623E-01   -0.69983E-01  2016   0.141E+00    0.707E+00
DAV:  13    -0.853696260383E+03   -0.48815E-01   -0.74300E-01  1960   0.808E-01    0.381E+00
DAV:  14    -0.853625754043E+03    0.70506E-01   -0.15739E-01  2008   0.552E-01    0.374E+00
DAV:  15    -0.853579010418E+03    0.46744E-01   -0.17222E-01  2000   0.637E-01    0.413E+00
DAV:  16    -0.853671113098E+03   -0.92103E-01   -0.14570E-01  2008   0.544E-01    0.464E+00
DAV:  17    -0.853707416193E+03   -0.36303E-01   -0.91353E-02  2072   0.395E-01    0.472E+00
DAV:  18    -0.853716689269E+03   -0.92731E-02   -0.17745E-02  2088   0.158E-01    0.480E+00
DAV:  19    -0.853765249302E+03   -0.48560E-01   -0.78671E-03  2088   0.149E-01    0.481E+00
DAV:  20    -0.853833138428E+03   -0.67889E-01   -0.19435E-02  2032   0.207E-01    0.470E+00
DAV:  21    -0.853917491879E+03   -0.84353E-01   -0.37638E-02  2144   0.368E-01    0.500E+00
DAV:  22    -0.854024459919E+03   -0.10697E+00   -0.79839E-02  2008   0.479E-01    0.489E+00
DAV:  23    -0.854081913604E+03   -0.57454E-01   -0.22023E-01  2104   0.789E-01    0.472E+00
DAV:  24    -0.854077182011E+03    0.47316E-02   -0.71161E-02  1952   0.381E-01    0.460E+00
DAV:  25    -0.854033534682E+03    0.43647E-01   -0.42978E-02  2096   0.207E-01    0.324E+00
DAV:  26    -0.854020458436E+03    0.13076E-01   -0.35008E-02  2264   0.250E-01    0.369E+00
DAV:  27    -0.854030601723E+03   -0.10143E-01   -0.77039E-03  1776   0.166E-01    0.405E+00
DAV:  28    -0.854025885489E+03    0.47162E-02   -0.39722E-03  1976   0.704E-02    0.431E+00
DAV:  29    -0.854072882972E+03   -0.46997E-01   -0.47597E-02  2272   0.111E-01    0.574E+00
DAV:  30    -0.854052033350E+03    0.20850E-01   -0.28196E-03  1840   0.820E-02    0.576E+00
DAV:  31    -0.854040789417E+03    0.11244E-01   -0.22194E-04  1936   0.219E-02    0.578E+00
DAV:  32    -0.854039301360E+03    0.14881E-02   -0.13768E-04  1840   0.135E-02    0.577E+00
DAV:  33    -0.854043806837E+03   -0.45055E-02   -0.11796E-03  1968   0.532E-02    0.586E+00
DAV:  34    -0.854022165339E+03    0.21641E-01   -0.95022E-03  2320   0.169E-01    0.642E+00
DAV:  35    -0.854081256132E+03   -0.59091E-01   -0.22484E-02  2184   0.229E-01    0.562E+00
DAV:  36    -0.854016081475E+03    0.65175E-01   -0.39315E-02  2104   0.241E-01    0.494E+00
DAV:  37    -0.854072543236E+03   -0.56462E-01   -0.70576E-02  2344   0.458E-01    0.280E+00
DAV:  38    -0.854091897416E+03   -0.19354E-01   -0.21893E-02  2040   0.209E-01    0.219E+00
DAV:  39    -0.854094819311E+03   -0.29219E-02   -0.74736E-04  2008   0.405E-02    0.217E+00
DAV:  40    -0.854091263903E+03    0.35554E-02   -0.25448E-04  1920   0.277E-02    0.209E+00
DAV:  41    -0.854095351626E+03   -0.40877E-02   -0.68911E-04  1936   0.342E-02    0.202E+00
DAV:  42    -0.854138965631E+03   -0.43614E-01   -0.10179E-01  2136   0.532E-01    0.179E+00
DAV:  43    -0.854143666163E+03   -0.47005E-02   -0.26945E-02  2032   0.205E-01    0.188E+00
DAV:  44    -0.854141112743E+03    0.25534E-02   -0.61772E-03  2032   0.693E-02    0.183E+00
DAV:  45    -0.854139685267E+03    0.14275E-02   -0.29095E-03  2144   0.727E-02    0.198E+00
DAV:  46    -0.854130837275E+03    0.88480E-02   -0.13321E-02  1984   0.672E-02    0.192E+00
DAV:  47    -0.854153553019E+03   -0.22716E-01   -0.47241E-02  2048   0.262E-01    0.144E+00
DAV:  48    -0.854154383407E+03   -0.83039E-03   -0.89155E-03  1952   0.101E-01    0.145E+00
DAV:  49    -0.854153177450E+03    0.12060E-02   -0.20715E-03  2280   0.868E-02    0.134E+00
DAV:  50    -0.854154282118E+03   -0.11047E-02   -0.53168E-03  1976   0.759E-02    0.135E+00
DAV:  51    -0.854150862812E+03    0.34193E-02   -0.52468E-03  2112   0.710E-02    0.130E+00
DAV:  52    -0.854152782870E+03   -0.19201E-02   -0.10127E-02  2008   0.119E-01    0.140E+00
DAV:  53    -0.854139241725E+03    0.13541E-01   -0.25555E-02  2000   0.130E-01    0.139E+00
DAV:  54    -0.854137268076E+03    0.19736E-02   -0.63916E-03  2056   0.807E-02    0.143E+00
DAV:  55    -0.854143532989E+03   -0.62649E-02   -0.16960E-03  1864   0.519E-02    0.138E+00
DAV:  56    -0.854148431055E+03   -0.48981E-02   -0.37640E-03  2056   0.714E-02    0.135E+00
DAV:  57    -0.854151260776E+03   -0.28297E-02   -0.17970E-02  2032   0.155E-01    0.113E+00
DAV:  58    -0.854164224643E+03   -0.12964E-01   -0.37955E-02  1976   0.169E-01    0.112E+00
DAV:  59    -0.854165539598E+03   -0.13150E-02   -0.62587E-03  2064   0.831E-02    0.101E+00
DAV:  60    -0.854163330243E+03    0.22094E-02   -0.46041E-04  1776   0.299E-02    0.101E+00
DAV:  61    -0.854163038204E+03    0.29204E-03   -0.95841E-05  1696   0.867E-03    0.992E-01
DAV:  62    -0.854164890709E+03   -0.18525E-02   -0.11294E-02  2032   0.875E-02    0.759E-01
DAV:  63    -0.854173862371E+03   -0.89717E-02   -0.11829E-02  1984   0.104E-01    0.630E-01
DAV:  64    -0.854176943296E+03   -0.30809E-02   -0.38025E-02  1944   0.172E-01    0.400E-01
DAV:  65    -0.854180334820E+03   -0.33915E-02   -0.59590E-03  1824   0.103E-01    0.412E-01
DAV:  66    -0.854182694932E+03   -0.23601E-02   -0.56642E-03  1992   0.685E-02    0.378E-01
DAV:  67    -0.854180387244E+03    0.23077E-02   -0.13496E-02  1872   0.113E-01    0.381E-01
DAV:  68    -0.854182268870E+03   -0.18816E-02   -0.98904E-04  1872   0.449E-02    0.384E-01
DAV:  69    -0.854181257475E+03    0.10114E-02   -0.79998E-04  1912   0.352E-02    0.445E-01
DAV:  70    -0.854180406529E+03    0.85095E-03   -0.82323E-04  1968   0.380E-02    0.466E-01
DAV:  71    -0.854180887676E+03   -0.48115E-03   -0.14203E-03  1936   0.346E-02    0.376E-01
DAV:  72    -0.854180538071E+03    0.34961E-03   -0.97451E-03  1976   0.141E-01    0.169E-01
DAV:  73    -0.854183456610E+03   -0.29185E-02   -0.87135E-03  1920   0.107E-01    0.123E-01
DAV:  74    -0.854183855995E+03   -0.39938E-03   -0.71239E-04  2008   0.388E-02    0.996E-02
DAV:  75    -0.854183883779E+03   -0.27784E-04   -0.45954E-05  1704   0.934E-03    0.917E-02
DAV:  76    -0.854183792689E+03    0.91090E-04   -0.40505E-04  1712   0.135E-02    0.105E-01
DAV:  77    -0.854183872702E+03   -0.80013E-04   -0.34228E-04  1736   0.199E-02    0.726E-02
DAV:  78    -0.854183894246E+03   -0.21544E-04   -0.39671E-05  1592   0.950E-03    0.607E-02
DAV:  79    -0.854183899598E+03   -0.53515E-05   -0.22083E-05  1456   0.610E-03
   3 F= -.85418390E+03 E0= -.85418390E+03  d E =-.749925E+01  mag=     2.0080
 BRION: g(F)=  0.198E+02 g(S)=  0.000E+00 retain N=  2 mean eig= 1.34
 eig:   0.043  2.642
 bond charge predicted
       N       E                     dE             d eps       ncg     rms          rms(c)
DAV:   1    -0.846116312439E+03    0.80676E+01   -0.26951E+03  1752   0.586E+01    0.723E+00
DAV:   2    -0.857450901061E+03   -0.11335E+02   -0.11978E+02  2088   0.151E+01    0.566E+00
DAV:   3    -0.857081749065E+03    0.36915E+00   -0.19192E+00  2136   0.261E+00    0.367E+00
DAV:   4    -0.856901545203E+03    0.18020E+00   -0.74330E-01  2032   0.159E+00    0.204E+00
DAV:   5    -0.856809457103E+03    0.92088E-01   -0.28486E-01  2168   0.129E+00    0.113E+00
DAV:   6    -0.856802168042E+03    0.72891E-02   -0.16987E-01  2096   0.811E-01    0.761E-01
DAV:   7    -0.856795132085E+03    0.70360E-02   -0.48085E-02  2104   0.444E-01    0.418E-01
DAV:   8    -0.856792135059E+03    0.29970E-02   -0.10122E-02  2112   0.213E-01    0.188E-01
DAV:   9    -0.856791170796E+03    0.96426E-03   -0.25806E-03  2216   0.156E-01    0.106E-01
DAV:  10    -0.856790778936E+03    0.39186E-03   -0.10012E-03  2136   0.111E-01    0.869E-02
DAV:  11    -0.856790849509E+03   -0.70573E-04   -0.94128E-04  2064   0.666E-02    0.784E-02
DAV:  12    -0.856790856787E+03   -0.72774E-05   -0.39982E-04  2072   0.501E-02    0.552E-02
DAV:  13    -0.856790872084E+03   -0.15297E-04   -0.27262E-04  2112   0.592E-02    0.424E-02
DAV:  14    -0.856790933152E+03   -0.61068E-04   -0.20876E-04  2048   0.402E-02    0.296E-02
DAV:  15    -0.856790991507E+03   -0.58356E-04   -0.95840E-05  2032   0.238E-02    0.225E-02
DAV:  16    -0.856791048791E+03   -0.57284E-04   -0.30804E-05  1656   0.155E-02    0.198E-02
DAV:  17    -0.856791087216E+03   -0.38425E-04   -0.15230E-05  1424   0.109E-02    0.141E-02
DAV:  18    -0.856791123146E+03   -0.35930E-04   -0.17570E-05  1480   0.984E-03    0.842E-03
DAV:  19    -0.856791150906E+03   -0.27760E-04   -0.93724E-06  1456   0.806E-03    0.660E-03
DAV:  20    -0.856791159876E+03   -0.89702E-05   -0.61121E-06  1464   0.454E-03
   4 F= -.85679116E+03 E0= -.85679116E+03  d E =-.260726E+01  mag=     2.0000
 BRION: g(F)=  0.123E+02 g(S)=  0.000E+00 retain N=  3 mean eig= 1.23
 eig:   3.328  0.113  0.249
 bond charge predicted
       N       E                     dE             d eps       ncg     rms          rms(c)
DAV:   1    -0.855719904884E+03    0.10712E+01   -0.47988E+02  1808   0.311E+01    0.405E+00
DAV:   2    -0.857428196730E+03   -0.17083E+01   -0.21017E+01  2128   0.580E+00    0.317E+00
DAV:   3    -0.857206890563E+03    0.22131E+00   -0.54253E-01  2136   0.133E+00    0.216E+00
DAV:   4    -0.857010836117E+03    0.19605E+00   -0.56334E-01  2152   0.145E+00    0.108E+00
DAV:   5    -0.856998547834E+03    0.12288E-01   -0.13691E-01  2152   0.719E-01    0.756E-01
DAV:   6    -0.856988238794E+03    0.10309E-01   -0.88558E-02  2088   0.623E-01    0.347E-01
DAV:   7    -0.856987014001E+03    0.12248E-02   -0.10654E-02  2024   0.213E-01    0.262E-01
DAV:   8    -0.856985272805E+03    0.17412E-02   -0.24711E-03  2160   0.139E-01    0.153E-01
DAV:   9    -0.856984753366E+03    0.51944E-03   -0.13519E-03  2136   0.107E-01    0.136E-01
DAV:  10    -0.856984870301E+03   -0.11693E-03   -0.97448E-04  2024   0.592E-02    0.128E-01
DAV:  11    -0.856984916232E+03   -0.45931E-04   -0.34064E-04  2128   0.330E-02    0.109E-01
DAV:  12    -0.856984632042E+03    0.28419E-03   -0.15982E-03  2024   0.945E-02    0.620E-02
DAV:  13    -0.856984904682E+03   -0.27264E-03   -0.46670E-04  2088   0.723E-02    0.421E-02
DAV:  14    -0.856984967993E+03   -0.63311E-04   -0.32376E-04  2104   0.436E-02    0.327E-02
DAV:  15    -0.856985001687E+03   -0.33694E-04   -0.88779E-05  1984   0.181E-02    0.261E-02
DAV:  16    -0.856985048429E+03   -0.46743E-04   -0.33233E-05  1576   0.113E-02    0.193E-02
DAV:  17    -0.856985095024E+03   -0.46595E-04   -0.52877E-05  1712   0.142E-02    0.117E-02
DAV:  18    -0.856985144020E+03   -0.48995E-04   -0.25291E-05  1600   0.151E-02    0.965E-03
DAV:  19    -0.856985155871E+03   -0.11851E-04   -0.14850E-05  1496   0.762E-03    0.750E-03
DAV:  20    -0.856985158816E+03   -0.29455E-05   -0.24956E-06  1400   0.338E-03
   5 F= -.85698516E+03 E0= -.85698516E+03  d E =-.193999E+00  mag=     2.0000
 BRION: g(F)=  0.105E+02 g(S)=  0.000E+00 retain N=  4 mean eig= 1.27
 eig:   4.403  0.094  0.285  0.285
 bond charge predicted
       N       E                     dE             d eps       ncg     rms          rms(c)
DAV:   1    -0.858456336606E+03   -0.14712E+01   -0.17783E+02  1728   0.195E+01    0.271E+00
DAV:   2    -0.858857611600E+03   -0.40127E+00   -0.56407E+00  2080   0.325E+00    0.178E+00
DAV:   3    -0.858796330747E+03    0.61281E-01   -0.16573E-01  2136   0.828E-01    0.120E+00
DAV:   4    -0.858734314906E+03    0.62016E-01   -0.11858E-01  2088   0.812E-01    0.522E-01
DAV:   5    -0.858725896061E+03    0.84188E-02   -0.48990E-02  2112   0.560E-01    0.328E-01
DAV:   6    -0.858723625399E+03    0.22707E-02   -0.27489E-02  2104   0.338E-01    0.217E-01
DAV:   7    -0.858722286049E+03    0.13394E-02   -0.30016E-03  2072   0.126E-01    0.157E-01
DAV:   8    -0.858720911174E+03    0.13749E-02   -0.88604E-04  2224   0.135E-01    0.102E-01
DAV:   9    -0.858720391925E+03    0.51925E-03   -0.13815E-03  2160   0.133E-01    0.629E-02
DAV:  10    -0.858720469312E+03   -0.77387E-04   -0.91068E-04  2056   0.711E-02    0.637E-02
DAV:  11    -0.858720513087E+03   -0.43775E-04   -0.15567E-04  1976   0.248E-02    0.491E-02
DAV:  12    -0.858720600735E+03   -0.87648E-04   -0.27198E-04  2000   0.359E-02    0.355E-02
DAV:  13    -0.858720632999E+03   -0.32264E-04   -0.67602E-05  1848   0.245E-02    0.277E-02
DAV:  14    -0.858720653034E+03   -0.20035E-04   -0.16691E-04  1944   0.334E-02    0.255E-02
DAV:  15    -0.858720661159E+03   -0.81248E-05   -0.35375E-05  1712   0.111E-02
   6 F= -.85872066E+03 E0= -.85872066E+03  d E =-.173550E+01  mag=     2.0000
 BRION: g(F)=  0.246E+01 g(S)=  0.000E+00 retain N=  5 mean eig= 2.27
 eig:   7.072  3.499  0.325  0.325  0.123
 bond charge predicted
       N       E                     dE             d eps       ncg     rms          rms(c)
DAV:   1    -0.859129829557E+03   -0.40918E+00   -0.35548E+01  1728   0.944E+00    0.147E+00
DAV:   2    -0.859209083036E+03   -0.79253E-01   -0.10854E+00  2120   0.162E+00    0.936E-01
DAV:   3    -0.859198128674E+03    0.10954E-01   -0.35336E-02  2080   0.413E-01    0.579E-01
DAV:   4    -0.859185786652E+03    0.12342E-01   -0.23651E-02  2152   0.393E-01    0.273E-01
DAV:   5    -0.859185350137E+03    0.43651E-03   -0.11422E-02  2136   0.255E-01    0.161E-01
DAV:   6    -0.859185059855E+03    0.29028E-03   -0.43728E-03  2072   0.135E-01    0.114E-01
DAV:   7    -0.859184669937E+03    0.38992E-03   -0.67283E-04  2224   0.694E-02    0.676E-02
DAV:   8    -0.859184471097E+03    0.19884E-03   -0.60390E-04  2136   0.637E-02    0.631E-02
DAV:   9    -0.859184477674E+03   -0.65778E-05   -0.29407E-04  2128   0.314E-02    0.634E-02
DAV:  10    -0.859184473035E+03    0.46394E-05   -0.50328E-05  1608   0.107E-02
   7 F= -.85918447E+03 E0= -.85918447E+03  d E =-.463812E+00  mag=     2.0000
 BRION: g(F)=  0.145E+01 g(S)=  0.000E+00 retain N=  2 mean eig= 0.14
 eig:   0.120  0.161
 bond charge predicted
       N       E                     dE             d eps       ncg     rms          rms(c)
DAV:   1    -0.859557806946E+03   -0.37333E+00   -0.14816E+02  1728   0.168E+01    0.373E+00
DAV:   2    -0.860073495097E+03   -0.51569E+00   -0.46664E+00  2048   0.280E+00    0.204E+00
DAV:   3    -0.860115836624E+03   -0.42342E-01   -0.17006E-01  2024   0.761E-01    0.122E+00
DAV:   4    -0.860109603507E+03    0.62331E-02   -0.47590E-02  2064   0.394E-01    0.118E+00
DAV:   5    -0.860109540764E+03    0.62743E-04   -0.38758E-02  2112   0.332E-01    0.786E-01
DAV:   6    -0.860112253285E+03   -0.27125E-02   -0.24170E-02  2128   0.231E-01    0.771E-01
DAV:   7    -0.860114518209E+03   -0.22649E-02   -0.17957E-02  2256   0.141E-01    0.972E-01
DAV:   8    -0.860111535629E+03    0.29826E-02   -0.11868E-03  1896   0.611E-02    0.100E+00
DAV:   9    -0.860112832544E+03   -0.12969E-02   -0.38864E-03  2000   0.728E-02    0.104E+00
DAV:  10    -0.860118177522E+03   -0.53450E-02   -0.10464E-01  2072   0.298E-01    0.154E+00
DAV:  11    -0.860112981838E+03    0.51957E-02   -0.16813E-02  1952   0.204E-01    0.964E-01
DAV:  12    -0.860117591189E+03   -0.46094E-02   -0.58964E-02  2016   0.209E-01    0.910E-01
DAV:  13    -0.860118599952E+03   -0.10088E-02   -0.20307E-02  2096   0.132E-01    0.975E-01
DAV:  14    -0.860111887388E+03    0.67126E-02   -0.15401E-02  1792   0.121E-01    0.970E-01
DAV:  15    -0.860106675780E+03    0.52116E-02   -0.32545E-02  2112   0.167E-01    0.112E+00
DAV:  16    -0.860118753763E+03   -0.12078E-01   -0.73843E-02  1896   0.242E-01    0.118E+00
DAV:  17    -0.860065701691E+03    0.53052E-01   -0.95490E-01  2072   0.104E+00    0.216E+00
DAV:  18    -0.860112804985E+03   -0.47103E-01   -0.40376E-01  1856   0.643E-01    0.663E-01
DAV:  19    -0.860115958717E+03   -0.31537E-02   -0.61285E-02  2032   0.268E-01    0.267E-01
DAV:  20    -0.860118762298E+03   -0.28036E-02   -0.90901E-03  1904   0.135E-01    0.144E-01
DAV:  21    -0.860118915309E+03   -0.15301E-03   -0.56372E-03  2016   0.774E-02    0.242E-01
DAV:  22    -0.860119298252E+03   -0.38294E-03   -0.13978E-03  1992   0.475E-02    0.995E-02
DAV:  23    -0.860118932854E+03    0.36540E-03   -0.49330E-03  1976   0.644E-02    0.930E-02
DAV:  24    -0.860119575533E+03   -0.64268E-03   -0.34695E-04  1904   0.264E-02    0.232E-02
DAV:  25    -0.860119518157E+03    0.57377E-04   -0.11227E-03  2016   0.340E-02    0.675E-02
DAV:  26    -0.860119655491E+03   -0.13733E-03   -0.53018E-04  1808   0.262E-02    0.238E-02
DAV:  27    -0.860119665524E+03   -0.10033E-04   -0.82229E-05  1608   0.916E-03    0.184E-02
DAV:  28    -0.860119665139E+03    0.38452E-06   -0.16872E-05  1440   0.656E-03
   8 F= -.86011967E+03 E0= -.86011902E+03  d E =-.935192E+00  mag=     2.0000
 BRION: g(F)=  0.184E+01 g(S)=  0.000E+00 retain N=  3 mean eig= 0.68
 eig:   0.281  0.886  0.886
 bond charge predicted
       N       E                     dE             d eps       ncg     rms          rms(c)
DAV:   1    -0.860470990169E+03   -0.35132E+00   -0.14494E+01  1728   0.535E+00    0.200E+00
DAV:   2    -0.860534867369E+03   -0.63877E-01   -0.64410E-01  2008   0.115E+00    0.230E+00
DAV:   3    -0.860530293746E+03    0.45736E-02   -0.30293E-01  2120   0.551E-01    0.272E+00
DAV:   4    -0.860518258395E+03    0.12035E-01   -0.14328E-02  1880   0.174E-01    0.268E+00
DAV:   5    -0.860505044122E+03    0.13214E-01   -0.35755E-02  2328   0.114E-01    0.174E+00
DAV:   6    -0.860511917529E+03   -0.68734E-02   -0.38655E-03  2152   0.121E-01    0.162E+00
DAV:   7    -0.860519232882E+03   -0.73154E-02   -0.49968E-02  2096   0.272E-01    0.162E+00
DAV:   8    -0.860520227897E+03   -0.99502E-03   -0.39005E-02  2168   0.264E-01    0.898E-01
DAV:   9    -0.860526074180E+03   -0.58463E-02   -0.29597E-02  2008   0.221E-01    0.682E-01
DAV:  10    -0.860530186435E+03   -0.41123E-02   -0.12892E-02  2056   0.101E-01    0.659E-01
DAV:  11    -0.860526273833E+03    0.39126E-02   -0.81928E-03  1792   0.915E-02    0.679E-01
DAV:  12    -0.860529671243E+03   -0.33974E-02   -0.17460E-03  1744   0.394E-02    0.671E-01
DAV:  13    -0.860533108891E+03   -0.34376E-02   -0.34694E-02  1912   0.168E-01    0.680E-01
DAV:  14    -0.860536919974E+03   -0.38111E-02   -0.12485E-02  2024   0.884E-02    0.731E-01
DAV:  15    -0.860526124488E+03    0.10795E-01   -0.58218E-02  1832   0.153E-01    0.824E-01
DAV:  16    -0.860509801709E+03    0.16323E-01   -0.22254E-01  2064   0.282E-01    0.136E+00
DAV:  17    -0.860500886257E+03    0.89155E-02   -0.17009E-01  2136   0.312E-01    0.171E+00
DAV:  18    -0.860513233476E+03   -0.12347E-01   -0.14412E-02  1832   0.157E-01    0.153E+00
DAV:  19    -0.860507209686E+03    0.60238E-02   -0.10884E-01  1936   0.228E-01    0.886E-01
DAV:  20    -0.860520576805E+03   -0.13367E-01   -0.82367E-03  1816   0.102E-01    0.736E-01
DAV:  21    -0.860523716912E+03   -0.31401E-02   -0.37827E-04  1976   0.389E-02    0.715E-01
DAV:  22    -0.860522869464E+03    0.84745E-03   -0.24158E-03  2096   0.894E-02    0.703E-01
DAV:  23    -0.860522815041E+03    0.54423E-04   -0.24134E-02  2056   0.127E-01    0.611E-01
DAV:  24    -0.860525746933E+03   -0.29319E-02   -0.15325E-02  2144   0.100E-01    0.634E-01
DAV:  25    -0.860527872065E+03   -0.21251E-02   -0.10836E-03  1816   0.441E-02    0.659E-01
DAV:  26    -0.860528427838E+03   -0.55577E-03   -0.66646E-04  1960   0.194E-02    0.669E-01
DAV:  27    -0.860527983558E+03    0.44428E-03   -0.58249E-04  1608   0.264E-02    0.644E-01
DAV:  28    -0.860526197948E+03    0.17856E-02   -0.36010E-03  2008   0.477E-02    0.615E-01
DAV:  29    -0.860522298447E+03    0.38995E-02   -0.15048E-02  2000   0.101E-01    0.544E-01
DAV:  30    -0.860524518214E+03   -0.22198E-02   -0.17390E-03  1824   0.491E-02    0.530E-01
DAV:  31    -0.860524890990E+03   -0.37278E-03   -0.17979E-04  1760   0.140E-02    0.530E-01
DAV:  32    -0.860524583089E+03    0.30790E-03   -0.27821E-04  1880   0.149E-02    0.530E-01
DAV:  33    -0.860524146814E+03    0.43628E-03   -0.45719E-04  1944   0.242E-02    0.486E-01
DAV:  34    -0.860519287896E+03    0.48589E-02   -0.14285E-02  1944   0.104E-01    0.474E-01
DAV:  35    -0.860522079661E+03   -0.27918E-02   -0.93895E-04  1776   0.430E-02    0.458E-01
DAV:  36    -0.860522855606E+03   -0.77594E-03   -0.76011E-04  1800   0.273E-02    0.446E-01
DAV:  37    -0.860522005600E+03    0.85001E-03   -0.15919E-03  1784   0.502E-02    0.403E-01
DAV:  38    -0.860518939464E+03    0.30661E-02   -0.70786E-03  1976   0.738E-02    0.464E-01
DAV:  39    -0.860521020810E+03   -0.20813E-02   -0.11027E-03  1824   0.369E-02    0.401E-01
DAV:  40    -0.860515279797E+03    0.57410E-02   -0.10821E-02  1888   0.907E-02    0.495E-01
DAV:  41    -0.860519673470E+03   -0.43937E-02   -0.18444E-03  1800   0.444E-02    0.454E-01
DAV:  42    -0.860515501556E+03    0.41719E-02   -0.60392E-03  1896   0.739E-02    0.536E-01
DAV:  43    -0.860514867793E+03    0.63376E-03   -0.33633E-03  2040   0.499E-02    0.568E-01
DAV:  44    -0.860515048645E+03   -0.18085E-03   -0.11382E-03  2024   0.302E-02    0.584E-01
DAV:  45    -0.860514678300E+03    0.37035E-03   -0.69358E-04  1944   0.224E-02    0.607E-01
DAV:  46    -0.860515206033E+03   -0.52773E-03   -0.57237E-05  1616   0.125E-02    0.599E-01
DAV:  47    -0.860515041503E+03    0.16453E-03   -0.59064E-05  1440   0.558E-03    0.614E-01
DAV:  48    -0.860515235748E+03   -0.19424E-03   -0.16025E-05  1312   0.492E-03    0.609E-01
DAV:  49    -0.860516155094E+03   -0.91935E-03   -0.10471E-03  1816   0.253E-02    0.572E-01
DAV:  50    -0.860517435149E+03   -0.12801E-02   -0.27656E-03  2072   0.431E-02    0.525E-01
DAV:  51    -0.860518583806E+03   -0.11487E-02   -0.22435E-03  2136   0.437E-02    0.494E-01
DAV:  52    -0.860518187619E+03    0.39619E-03   -0.30771E-04  1680   0.222E-02    0.509E-01
DAV:  53    -0.860518337860E+03   -0.15024E-03   -0.29161E-05  1464   0.548E-03    0.503E-01
DAV:  54    -0.860518424741E+03   -0.86881E-04   -0.17212E-05  1360   0.400E-03    0.500E-01
DAV:  55    -0.860519023260E+03   -0.59852E-03   -0.48115E-04  1704   0.193E-02    0.481E-01
DAV:  56    -0.860519055467E+03   -0.32207E-04   -0.51891E-05  1528   0.892E-03    0.482E-01
DAV:  57    -0.860518750827E+03    0.30464E-03   -0.57190E-05  1480   0.887E-03    0.490E-01
DAV:  58    -0.860518952578E+03   -0.20175E-03   -0.27473E-05  1280   0.526E-03    0.484E-01
DAV:  59    -0.860519293946E+03   -0.34137E-03   -0.14238E-04  1664   0.114E-02    0.472E-01
DAV:  60    -0.860521061901E+03   -0.17680E-02   -0.10610E-02  1944   0.926E-02    0.388E-01
DAV:  61    -0.860522548179E+03   -0.14863E-02   -0.36283E-03  2016   0.572E-02    0.376E-01
DAV:  62    -0.860523018118E+03   -0.46994E-03   -0.49236E-04  1768   0.246E-02    0.374E-01
DAV:  63    -0.860522876413E+03    0.14170E-03   -0.23462E-05  1624   0.910E-03    0.376E-01
DAV:  64    -0.860522822274E+03    0.54139E-04   -0.11348E-06  1464   0.227E-03    0.376E-01
DAV:  65    -0.860522817137E+03    0.51370E-05   -0.20952E-07  1120   0.790E-04
   9 F= -.86052282E+03 E0= -.86052266E+03  d E =-.403152E+00  mag=     2.0000
 BRION: g(F)=  0.173E+01 g(S)=  0.000E+00 retain N=  4 mean eig= 1.08
 eig:   0.304  0.717  0.717  2.581
 bond charge predicted
       N       E                     dE             d eps       ncg     rms          rms(c)
DAV:   1    -0.859591571339E+03    0.93125E+00   -0.53090E+01  1728   0.934E+00    0.319E+00
DAV:   2    -0.859845151569E+03   -0.25358E+00   -0.23054E+00  1992   0.173E+00    0.633E+00
DAV:   3    -0.859791812582E+03    0.53339E-01   -0.18587E+00  2144   0.972E-01    0.399E+00
DAV:   4    -0.859823920923E+03   -0.32108E-01   -0.93289E-02  2008   0.338E-01    0.397E+00
DAV:   5    -0.859807590401E+03    0.16331E-01   -0.78359E-03  1920   0.144E-01    0.408E+00
DAV:   6    -0.859808664936E+03   -0.10745E-02   -0.33013E-03  2080   0.572E-02    0.401E+00
DAV:   7    -0.859803799212E+03    0.48657E-02   -0.30507E-01  2080   0.591E-01    0.290E+00
DAV:   8    -0.859799519398E+03    0.42798E-02   -0.55007E-01  2224   0.747E-01    0.163E+00
DAV:   9    -0.859819330359E+03   -0.19811E-01   -0.38039E-02  1864   0.288E-01    0.147E+00
DAV:  10    -0.859830822547E+03   -0.11492E-01   -0.43996E-02  2024   0.190E-01    0.118E+00
DAV:  11    -0.859840209294E+03   -0.93867E-02   -0.10171E-01  1984   0.267E-01    0.721E-01
DAV:  12    -0.859835325768E+03    0.48835E-02   -0.60970E-02  2136   0.282E-01    0.466E-01
DAV:  13    -0.859840678877E+03   -0.53531E-02   -0.20219E-02  2008   0.181E-01    0.208E-01
DAV:  14    -0.859841400127E+03   -0.72125E-03   -0.18430E-03  2144   0.755E-02    0.146E-01
DAV:  15    -0.859841418267E+03   -0.18140E-04   -0.59890E-04  2056   0.466E-02    0.922E-02
DAV:  16    -0.859841470043E+03   -0.51776E-04   -0.19543E-04  2048   0.254E-02    0.715E-02
DAV:  17    -0.859841484840E+03   -0.14797E-04   -0.11466E-04  1896   0.182E-02    0.632E-02
DAV:  18    -0.859841497697E+03   -0.12857E-04   -0.11266E-04  1696   0.139E-02    0.534E-02
DAV:  19    -0.859841430653E+03    0.67043E-04   -0.57130E-04  1856   0.306E-02    0.533E-02
DAV:  20    -0.859841505699E+03   -0.75046E-04   -0.83981E-05  1680   0.153E-02    0.393E-02
DAV:  21    -0.859841513274E+03   -0.75742E-05   -0.25840E-05  1624   0.782E-03
  10 F= -.85984151E+03 E0= -.85984151E+03  d E =0.681304E+00  mag=     2.0000
 BRION: g(F)=  0.146E+01 g(S)=  0.000E+00 retain N=  5 mean eig= 0.97
 eig:   2.460  0.248  0.408  0.557  1.187
 bond charge predicted
       N       E                     dE             d eps       ncg     rms          rms(c)
DAV:   1    -0.859572277176E+03    0.26923E+00   -0.37732E+01  1728   0.886E+00    0.199E+00
DAV:   2    -0.859700101233E+03   -0.12782E+00   -0.12443E+00  2040   0.145E+00    0.105E+00
DAV:   3    -0.859707210254E+03   -0.71090E-02   -0.53529E-02  2024   0.389E-01    0.649E-01
DAV:   4    -0.859703528722E+03    0.36815E-02   -0.29132E-02  1968   0.277E-01    0.315E-01
DAV:   5    -0.859705521976E+03   -0.19933E-02   -0.81526E-03  2056   0.174E-01    0.196E-01
DAV:   6    -0.859706186921E+03   -0.66494E-03   -0.30568E-03  2104   0.896E-02    0.152E-01
DAV:   7    -0.859706399884E+03   -0.21296E-03   -0.11535E-03  2032   0.428E-02    0.107E-01
DAV:   8    -0.859706497227E+03   -0.97343E-04   -0.76134E-04  2088   0.452E-02    0.521E-02
DAV:   9    -0.859706528339E+03   -0.31112E-04   -0.22108E-04  2088   0.307E-02    0.319E-02
DAV:  10    -0.859706553611E+03   -0.25272E-04   -0.15784E-04  1968   0.189E-02    0.256E-02
DAV:  11    -0.859706566519E+03   -0.12908E-04   -0.46820E-05  1600   0.872E-03    0.198E-02
DAV:  12    -0.859706580309E+03   -0.13790E-04   -0.38410E-05  1544   0.856E-03    0.156E-02
DAV:  13    -0.859706591090E+03   -0.10781E-04   -0.17644E-05  1496   0.831E-03    0.113E-02
DAV:  14    -0.859706600845E+03   -0.97553E-05   -0.27706E-05  1512   0.156E-02
  11 F= -.85970660E+03 E0= -.85970660E+03  d E =0.134912E+00  mag=     2.0000
 BRION: g(F)=  0.957E+00 g(S)=  0.000E+00 retain N=  3 mean eig= 0.77
 eig:   1.753  0.149  0.419
 bond charge predicted
       N       E                     dE             d eps       ncg     rms          rms(c)
DAV:   1    -0.859842118884E+03   -0.13553E+00   -0.50944E+01  1728   0.984E+00    0.236E+00
DAV:   2    -0.860004554582E+03   -0.16244E+00   -0.14360E+00  2000   0.162E+00    0.116E+00
DAV:   3    -0.860024045655E+03   -0.19491E-01   -0.58457E-02  2000   0.434E-01    0.650E-01
DAV:   4    -0.860022979569E+03    0.10661E-02   -0.17534E-02  2016   0.242E-01    0.332E-01
DAV:   5    -0.860023933979E+03   -0.95441E-03   -0.77398E-03  2048   0.170E-01    0.174E-01
DAV:   6    -0.860024317092E+03   -0.38311E-03   -0.16922E-03  2152   0.810E-02    0.962E-02
DAV:   7    -0.860024641414E+03   -0.32432E-03   -0.85637E-04  1992   0.361E-02    0.821E-02
DAV:   8    -0.860024778755E+03   -0.13734E-03   -0.22549E-04  2024   0.214E-02    0.774E-02
DAV:   9    -0.860024832586E+03   -0.53830E-04   -0.85215E-05  1896   0.165E-02    0.689E-02
DAV:  10    -0.860024893035E+03   -0.60450E-04   -0.10685E-04  1768   0.173E-02    0.521E-02
DAV:  11    -0.860024937911E+03   -0.44876E-04   -0.19153E-04  1912   0.272E-02    0.225E-02
DAV:  12    -0.860024988184E+03   -0.50272E-04   -0.57673E-05  1792   0.154E-02    0.152E-02
DAV:  13    -0.860025003612E+03   -0.15429E-04   -0.27172E-05  1544   0.851E-03    0.134E-02
DAV:  14    -0.860025009786E+03   -0.61737E-05   -0.71671E-06  1536   0.485E-03
  12 F= -.86002501E+03 E0= -.86002501E+03  d E =-.318409E+00  mag=     2.0000
 BRION: g(F)=  0.106E+01 g(S)=  0.000E+00 retain N=  4 mean eig= 0.71
 eig:   1.792  0.857  0.168  0.042
 bond charge predicted
       N       E                     dE             d eps       ncg     rms          rms(c)
DAV:   1    -0.860111208960E+03   -0.86205E-01   -0.53248E+00  1728   0.337E+00    0.714E-01
DAV:   2    -0.860125953919E+03   -0.14745E-01   -0.14590E-01  2016   0.541E-01    0.364E-01
DAV:   3    -0.860128287458E+03   -0.23335E-02   -0.57521E-03  1960   0.148E-01    0.208E-01
DAV:   4    -0.860127932981E+03    0.35448E-03   -0.25007E-03  2072   0.982E-02    0.103E-01
DAV:   5    -0.860128101243E+03   -0.16826E-03   -0.10864E-03  2000   0.701E-02    0.719E-02
DAV:   6    -0.860128121700E+03   -0.20457E-04   -0.23672E-04  2104   0.310E-02    0.455E-02
DAV:   7    -0.860128140177E+03   -0.18477E-04   -0.65652E-05  1736   0.126E-02    0.406E-02
DAV:   8    -0.860128149090E+03   -0.89132E-05   -0.25254E-05  1536   0.105E-02
  13 F= -.86012815E+03 E0= -.86012815E+03  d E =-.103139E+00  mag=     2.0000
 BRION: g(F)=  0.906E+00 g(S)=  0.000E+00 retain N=  5 mean eig= 2.00
 eig:   7.114  1.858  0.250  0.386  0.386
 bond charge predicted
       N       E                     dE             d eps       ncg     rms          rms(c)
DAV:   1    -0.859632477460E+03    0.49566E+00   -0.43105E+01  1728   0.822E+00    0.231E+00
DAV:   2    -0.859778234291E+03   -0.14576E+00   -0.11574E+00  1992   0.129E+00    0.108E+00
DAV:   3    -0.859805241693E+03   -0.27007E-01   -0.53300E-02  1968   0.383E-01    0.641E-01
DAV:   4    -0.859807028222E+03   -0.17865E-02   -0.15541E-02  2024   0.214E-01    0.360E-01
DAV:   5    -0.859808821154E+03   -0.17929E-02   -0.71105E-03  1952   0.137E-01    0.186E-01
DAV:   6    -0.859809446933E+03   -0.62578E-03   -0.14967E-03  2096   0.742E-02    0.114E-01
DAV:   7    -0.859809944356E+03   -0.49742E-03   -0.10496E-03  2008   0.414E-02    0.961E-02
DAV:   8    -0.859810063729E+03   -0.11937E-03   -0.18631E-04  2048   0.207E-02    0.882E-02
DAV:   9    -0.859810154304E+03   -0.90575E-04   -0.14565E-04  1952   0.210E-02    0.746E-02
DAV:  10    -0.859810228635E+03   -0.74330E-04   -0.24937E-04  1888   0.262E-02    0.446E-02
DAV:  11    -0.859810270618E+03   -0.41984E-04   -0.16187E-04  1944   0.261E-02    0.223E-02
DAV:  12    -0.859810293360E+03   -0.22742E-04   -0.46901E-05  1856   0.133E-02    0.163E-02
DAV:  13    -0.859810297343E+03   -0.39822E-05   -0.12382E-05  1520   0.619E-03
  14 F= -.85981030E+03 E0= -.85981030E+03  d E =0.317852E+00  mag=     2.0000
 BRION: g(F)=  0.825E+00 g(S)=  0.000E+00 retain N=  6 mean eig= 2.27
 eig:   7.931  3.567  1.092  0.462  0.462  0.108
 bond charge predicted
       N       E                     dE             d eps       ncg     rms          rms(c)
DAV:   1    -0.859502156978E+03    0.30814E+00   -0.25841E+01  1728   0.669E+00    0.174E+00
DAV:   2    -0.859585699259E+03   -0.83542E-01   -0.70206E-01  2000   0.106E+00    0.770E-01
DAV:   3    -0.859602583583E+03   -0.16884E-01   -0.28442E-02  2008   0.300E-01    0.452E-01
DAV:   4    -0.859602416434E+03    0.16715E-03   -0.74062E-03  2048   0.193E-01    0.232E-01
DAV:   5    -0.859603937642E+03   -0.15212E-02   -0.33775E-03  1984   0.124E-01    0.140E-01
DAV:   6    -0.859604362647E+03   -0.42501E-03   -0.11230E-03  2080   0.652E-02    0.928E-02
DAV:   7    -0.859604624981E+03   -0.26233E-03   -0.55815E-04  2000   0.331E-02    0.613E-02
DAV:   8    -0.859604701086E+03   -0.76105E-04   -0.97144E-05  1968   0.258E-02    0.527E-02
DAV:   9    -0.859604723511E+03   -0.22425E-04   -0.98879E-05  2032   0.204E-02    0.431E-02
DAV:  10    -0.859604744508E+03   -0.20998E-04   -0.36497E-05  1536   0.126E-02    0.319E-02
DAV:  11    -0.859604779892E+03   -0.35384E-04   -0.74668E-05  1848   0.180E-02    0.159E-02
DAV:  12    -0.859604810625E+03   -0.30732E-04   -0.25524E-05  1576   0.143E-02    0.111E-02
DAV:  13    -0.859604822621E+03   -0.11997E-04   -0.16901E-05  1488   0.120E-02    0.811E-03
DAV:  14    -0.859604825607E+03   -0.29856E-05   -0.90089E-06  1528   0.739E-03
  15 F= -.85960483E+03 E0= -.85960483E+03  d E =0.205472E+00  mag=     2.0000
 BRION: g(F)=  0.793E+00 g(S)=  0.000E+00 retain N=  4 mean eig= 1.63
 eig:   3.696  2.447  0.193  0.193
 bond charge predicted
       N       E                     dE             d eps       ncg     rms          rms(c)
DAV:   1    -0.859794729771E+03   -0.18991E+00   -0.91768E+01  1736   0.119E+01    0.299E+00
DAV:   2    -0.860136960577E+03   -0.34223E+00   -0.27241E+00  1944   0.191E+00    0.172E+00
DAV:   3    -0.860164640961E+03   -0.27680E-01   -0.10802E-01  2088   0.598E-01    0.943E-01
DAV:   4    -0.860165131086E+03   -0.49012E-03   -0.34157E-02  1984   0.268E-01    0.723E-01
DAV:   5    -0.860169034480E+03   -0.39034E-02   -0.45654E-02  2168   0.281E-01    0.627E-01
DAV:   6    -0.860171047119E+03   -0.20126E-02   -0.72976E-03  2112   0.135E-01    0.544E-01
DAV:   7    -0.860169344621E+03    0.17025E-02   -0.24101E-02  2248   0.204E-01    0.389E-01
DAV:   8    -0.860167104478E+03    0.22401E-02   -0.20060E-02  2264   0.225E-01    0.248E-01
DAV:   9    -0.860170863207E+03   -0.37587E-02   -0.13880E-02  1984   0.174E-01    0.112E-01
DAV:  10    -0.860171652313E+03   -0.78911E-03   -0.24503E-03  2016   0.533E-02    0.106E-01
DAV:  11    -0.860171881237E+03   -0.22892E-03   -0.12429E-03  2280   0.348E-02    0.933E-02
DAV:  12    -0.860172036490E+03   -0.15525E-03   -0.12499E-03  2080   0.343E-02    0.712E-02
DAV:  13    -0.860172184531E+03   -0.14804E-03   -0.78004E-04  2064   0.262E-02    0.621E-02
DAV:  14    -0.860172174860E+03    0.96714E-05   -0.14207E-03  2032   0.358E-02    0.457E-02
DAV:  15    -0.860172188901E+03   -0.14042E-04   -0.13093E-03  2088   0.349E-02    0.282E-02
DAV:  16    -0.860172249889E+03   -0.60988E-04   -0.87520E-04  2104   0.272E-02    0.200E-02
DAV:  17    -0.860172424663E+03   -0.17477E-03   -0.81630E-05  1688   0.124E-02    0.106E-02
DAV:  18    -0.860172445415E+03   -0.20752E-04   -0.41934E-05  1552   0.896E-03    0.778E-03
DAV:  19    -0.860172460350E+03   -0.14935E-04   -0.15862E-05  1504   0.595E-03    0.577E-03
DAV:  20    -0.860172465260E+03   -0.49105E-05   -0.42289E-06  1464   0.402E-03
  16 F= -.86017247E+03 E0= -.86017246E+03  d E =-.567640E+00  mag=     2.0000
 BRION: g(F)=  0.921E+00 g(S)=  0.000E+00 retain N=  4 mean eig= 1.08
 eig:   2.757  1.200  0.325  0.039
 bond charge predicted
       N       E                     dE             d eps       ncg     rms          rms(c)
DAV:   1    -0.860262431444E+03   -0.89971E-01   -0.39927E+00  1728   0.265E+00    0.664E-01
DAV:   2    -0.860275382868E+03   -0.12951E-01   -0.11501E-01  1968   0.412E-01    0.447E-01
DAV:   3    -0.860278730439E+03   -0.33476E-02   -0.96438E-03  2096   0.134E-01    0.425E-01
DAV:   4    -0.860278982892E+03   -0.25245E-03   -0.33119E-03  2096   0.522E-02    0.464E-01
DAV:   5    -0.860275677998E+03    0.33049E-02   -0.57494E-03  2000   0.819E-02    0.434E-01
DAV:   6    -0.860273683168E+03    0.19948E-02   -0.61893E-03  2200   0.798E-02    0.447E-01
DAV:   7    -0.860249637341E+03    0.24046E-01   -0.15868E-01  2112   0.363E-01    0.662E-01
DAV:   8    -0.860269047940E+03   -0.19411E-01   -0.14921E-02  1816   0.156E-01    0.556E-01
DAV:   9    -0.860273239542E+03   -0.41916E-02   -0.30057E-02  2120   0.190E-01    0.378E-01
DAV:  10    -0.860260034161E+03    0.13205E-01   -0.25360E-01  2144   0.515E-01    0.361E-01
DAV:  11    -0.860274132214E+03   -0.14098E-01   -0.39128E-02  2008   0.208E-01    0.391E-01
DAV:  12    -0.860278992571E+03   -0.48604E-02   -0.21258E-03  1928   0.690E-02    0.398E-01
DAV:  13    -0.860279206478E+03   -0.21391E-03   -0.62257E-05  1856   0.975E-03    0.398E-01
DAV:  14    -0.860278996787E+03    0.20969E-03   -0.14467E-04  1824   0.168E-02    0.413E-01
DAV:  15    -0.860279233725E+03   -0.23694E-03   -0.10382E-03  1848   0.303E-02    0.398E-01
DAV:  16    -0.860280757427E+03   -0.15237E-02   -0.22136E-03  2032   0.523E-02    0.295E-01
DAV:  17    -0.860280647998E+03    0.10943E-03   -0.26319E-02  1992   0.143E-01    0.141E-01
DAV:  18    -0.860282969108E+03   -0.23211E-02   -0.25923E-03  1936   0.666E-02    0.853E-02
DAV:  19    -0.860283181862E+03   -0.21275E-03   -0.16478E-04  1840   0.207E-02    0.845E-02
DAV:  20    -0.860283245511E+03   -0.63649E-04   -0.46823E-04  1920   0.266E-02    0.749E-02
DAV:  21    -0.860283319157E+03   -0.73645E-04   -0.11312E-03  1920   0.258E-02    0.636E-02
DAV:  22    -0.860283126694E+03    0.19246E-03   -0.43323E-03  2040   0.575E-02    0.619E-02
DAV:  23    -0.860283555648E+03   -0.42895E-03   -0.21918E-04  1688   0.214E-02    0.558E-02
DAV:  24    -0.860283564787E+03   -0.91391E-05   -0.42606E-05  1552   0.632E-03
  17 F= -.86028356E+03 E0= -.86028318E+03  d E =-.111100E+00  mag=     2.0000
 BRION: g(F)=  0.103E+01 g(S)=  0.000E+00 retain N=  5 mean eig= 1.48
 eig:   3.083  3.083  0.607  0.313  0.313
 bond charge predicted
       N       E                     dE             d eps       ncg     rms          rms(c)
DAV:   1    -0.859214061179E+03    0.10695E+01   -0.94325E+01  1744   0.123E+01    0.335E+00
DAV:   2    -0.859538464242E+03   -0.32440E+00   -0.27671E+00  1976   0.197E+00    0.182E+00
DAV:   3    -0.859596880298E+03   -0.58416E-01   -0.19587E-01  2024   0.535E-01    0.159E+00
DAV:   4    -0.859603396302E+03   -0.65160E-02   -0.42389E-02  2280   0.250E-01    0.146E+00
DAV:   5    -0.859612431351E+03   -0.90350E-02   -0.88555E-02  2040   0.299E-01    0.125E+00
DAV:   6    -0.859612487258E+03   -0.55908E-04   -0.12462E-01  2048   0.390E-01    0.802E-01
DAV:   7    -0.859610102565E+03    0.23847E-02   -0.35605E-02  2280   0.298E-01    0.360E-01
DAV:   8    -0.859615072412E+03   -0.49698E-02   -0.77962E-03  1920   0.140E-01    0.198E-01
DAV:   9    -0.859615687579E+03   -0.61517E-03   -0.31526E-03  2120   0.832E-02    0.167E-01
DAV:  10    -0.859616154133E+03   -0.46655E-03   -0.20947E-03  2008   0.476E-02    0.132E-01
DAV:  11    -0.859616352791E+03   -0.19866E-03   -0.18269E-03  2016   0.429E-02    0.942E-02
DAV:  12    -0.859616552310E+03   -0.19952E-03   -0.17431E-03  2024   0.372E-02    0.614E-02
DAV:  13    -0.859616805289E+03   -0.25298E-03   -0.72431E-04  2032   0.261E-02    0.425E-02
DAV:  14    -0.859616911928E+03   -0.10664E-03   -0.43986E-04  1912   0.213E-02    0.265E-02
DAV:  15    -0.859616983780E+03   -0.71852E-04   -0.30321E-04  1840   0.202E-02    0.141E-02
DAV:  16    -0.859617050666E+03   -0.66886E-04   -0.65040E-05  1704   0.120E-02    0.101E-02
DAV:  17    -0.859617072918E+03   -0.22252E-04   -0.81480E-06  1488   0.552E-03    0.791E-03
DAV:  18    -0.859617080584E+03   -0.76658E-05   -0.57420E-06  1416   0.451E-03
  18 F= -.85961708E+03 E0= -.85961708E+03  d E =0.666484E+00  mag=     2.0000
 BRION: g(F)=  0.933E+00 g(S)=  0.000E+00 retain N=  6 mean eig= 2.05
 eig:   7.026  2.221  2.221  0.361  0.228  0.228
 bond charge predicted
       N       E                     dE             d eps       ncg     rms          rms(c)
DAV:   1    -0.859497390585E+03    0.11968E+00   -0.18538E+01  1752   0.604E+00    0.134E+00
DAV:   2    -0.859551320567E+03   -0.53930E-01   -0.50258E-01  2008   0.943E-01    0.597E-01
DAV:   3    -0.859563976841E+03   -0.12656E-01   -0.18202E-02  1992   0.249E-01    0.341E-01
DAV:   4    -0.859563755526E+03    0.22131E-03   -0.49535E-03  2064   0.155E-01    0.174E-01
DAV:   5    -0.859564578498E+03   -0.82297E-03   -0.20088E-03  2000   0.104E-01    0.977E-02
DAV:   6    -0.859564735373E+03   -0.15688E-03   -0.62879E-04  2056   0.557E-02    0.603E-02
DAV:   7    -0.859564808963E+03   -0.73590E-04   -0.15679E-04  2048   0.281E-02    0.322E-02
DAV:   8    -0.859564844413E+03   -0.35450E-04   -0.39409E-05  1696   0.191E-02    0.298E-02
DAV:   9    -0.859564857959E+03   -0.13546E-04   -0.39131E-05  1824   0.126E-02    0.253E-02
DAV:  10    -0.859564870475E+03   -0.12516E-04   -0.15988E-05  1464   0.101E-02    0.172E-02
DAV:  11    -0.859564888966E+03   -0.18491E-04   -0.24105E-05  1520   0.148E-02    0.923E-03
DAV:  12    -0.859564901452E+03   -0.12486E-04   -0.11057E-05  1456   0.103E-02    0.802E-03
DAV:  13    -0.859564906626E+03   -0.51741E-05   -0.78188E-06  1440   0.802E-03
  19 F= -.85956491E+03 E0= -.85956491E+03  d E =0.521740E-01  mag=     2.0000
 BRION: g(F)=  0.736E+00 g(S)=  0.000E+00 retain N=  4 mean eig= 1.62
 eig:   5.154  0.911  0.215  0.215
 bond charge predicted
       N       E                     dE             d eps       ncg     rms          rms(c)
DAV:   1    -0.859527248180E+03    0.37653E-01   -0.70268E+01  1728   0.109E+01    0.285E+00
DAV:   2    -0.859774610135E+03   -0.24736E+00   -0.19998E+00  1984   0.177E+00    0.135E+00
DAV:   3    -0.859818065409E+03   -0.43455E-01   -0.80769E-02  1960   0.502E-01    0.701E-01
DAV:   4    -0.859819921849E+03   -0.18564E-02   -0.19534E-02  2016   0.233E-01    0.400E-01
DAV:   5    -0.859822024603E+03   -0.21028E-02   -0.72594E-03  2040   0.164E-01    0.264E-01
DAV:   6    -0.859823102209E+03   -0.10776E-02   -0.27688E-03  2056   0.839E-02    0.204E-01
DAV:   7    -0.859823325495E+03   -0.22329E-03   -0.17684E-03  1992   0.511E-02    0.147E-01
DAV:   8    -0.859823532606E+03   -0.20711E-03   -0.92562E-04  2072   0.420E-02    0.101E-01
DAV:   9    -0.859823591727E+03   -0.59122E-04   -0.25755E-04  2008   0.330E-02    0.626E-02
DAV:  10    -0.859823610990E+03   -0.19262E-04   -0.18805E-04  1792   0.216E-02    0.318E-02
DAV:  11    -0.859823652023E+03   -0.41034E-04   -0.91442E-05  1688   0.117E-02    0.199E-02
DAV:  12    -0.859823673246E+03   -0.21223E-04   -0.26582E-05  1488   0.780E-03    0.169E-02
DAV:  13    -0.859823680471E+03   -0.72246E-05   -0.14262E-05  1496   0.643E-03
  20 F= -.85982368E+03 E0= -.85982368E+03  d E =-.258774E+00  mag=     2.0000
 BRION: g(F)=  0.687E+00 g(S)=  0.000E+00 retain N=  4 mean eig= 1.20
 eig:   3.465  0.957  0.106  0.286
 bond charge predicted
       N       E                     dE             d eps       ncg     rms          rms(c)
DAV:   1    -0.859824502488E+03   -0.82924E-03   -0.82978E+00  1744   0.433E+00    0.815E-01
DAV:   2    -0.859846048126E+03   -0.21546E-01   -0.23377E-01  2072   0.720E-01    0.412E-01
DAV:   3    -0.859847010477E+03   -0.96235E-03   -0.90047E-03  2040   0.195E-01    0.230E-01
DAV:   4    -0.859845941546E+03    0.10689E-02   -0.27837E-03  2072   0.120E-01    0.103E-01
DAV:   5    -0.859846028219E+03   -0.86673E-04   -0.12197E-03  2144   0.894E-02    0.487E-02
DAV:   6    -0.859846063479E+03   -0.35259E-04   -0.48645E-04  2064   0.419E-02    0.434E-02
DAV:   7    -0.859846055752E+03    0.77266E-05   -0.67119E-05  1816   0.139E-02
  21 F= -.85984606E+03 E0= -.85984606E+03  d E =-.223753E-01  mag=     2.0000
 BRION: g(F)=  0.578E+00 g(S)=  0.000E+00 retain N=  3 mean eig= 1.42
 eig:   4.010  0.127  0.127
 bond charge predicted
       N       E                     dE             d eps       ncg     rms          rms(c)
DAV:   1    -0.859994981197E+03   -0.14892E+00   -0.11591E+02  1728   0.139E+01    0.332E+00
DAV:   2    -0.860338146468E+03   -0.34317E+00   -0.29924E+00  2096   0.244E+00    0.147E+00
DAV:   3    -0.860384570091E+03   -0.46424E-01   -0.11321E-01  2008   0.597E-01    0.783E-01
DAV:   4    -0.860384587633E+03   -0.17542E-04   -0.18327E-02  2040   0.263E-01    0.443E-01
DAV:   5    -0.860387730800E+03   -0.31432E-02   -0.83728E-03  1976   0.180E-01    0.269E-01
DAV:   6    -0.860389175178E+03   -0.14444E-02   -0.23532E-03  2024   0.927E-02    0.192E-01
DAV:   7    -0.860390091232E+03   -0.91605E-03   -0.22194E-03  2032   0.573E-02    0.140E-01
DAV:   8    -0.860390426039E+03   -0.33481E-03   -0.75713E-04  2208   0.432E-02    0.120E-01
DAV:   9    -0.860390497515E+03   -0.71477E-04   -0.42867E-04  2168   0.371E-02    0.922E-02
DAV:  10    -0.860390623145E+03   -0.12563E-03   -0.30874E-04  1904   0.287E-02    0.593E-02
DAV:  11    -0.860390812743E+03   -0.18960E-03   -0.22957E-04  1904   0.270E-02    0.334E-02
DAV:  12    -0.860390954831E+03   -0.14209E-03   -0.59694E-05  1776   0.172E-02    0.235E-02
DAV:  13    -0.860391007103E+03   -0.52273E-04   -0.62613E-05  1752   0.148E-02    0.129E-02
DAV:  14    -0.860391022382E+03   -0.15279E-04   -0.27939E-05  1592   0.795E-03    0.977E-03
DAV:  15    -0.860391030940E+03   -0.85577E-05   -0.81997E-06  1488   0.454E-03
  22 F= -.86039103E+03 E0= -.86039103E+03  d E =-.544975E+00  mag=     2.0000
 BRION: g(F)=  0.817E+00 g(S)=  0.000E+00 retain N=  3 mean eig= 1.81
 eig:   4.934  0.251  0.251
 bond charge predicted
       N       E                     dE             d eps       ncg     rms          rms(c)
DAV:   1    -0.860485118632E+03   -0.94096E-01   -0.11039E+01  1728   0.534E+00    0.880E-01
DAV:   2    -0.860508368333E+03   -0.23250E-01   -0.32105E-01  2048   0.898E-01    0.506E-01
DAV:   3    -0.860507652242E+03    0.71609E-03   -0.14282E-02  2096   0.273E-01    0.318E-01
DAV:   4    -0.860505008594E+03    0.26436E-02   -0.48918E-03  2024   0.184E-01    0.189E-01
DAV:   5    -0.860504464245E+03    0.54435E-03   -0.28071E-03  2208   0.162E-01    0.107E-01
DAV:   6    -0.860504580397E+03   -0.11615E-03   -0.18068E-03  2064   0.866E-02    0.828E-02
DAV:   7    -0.860504501799E+03    0.78598E-04   -0.31249E-04  2080   0.420E-02    0.549E-02
DAV:   8    -0.860504459779E+03    0.42020E-04   -0.18480E-04  2040   0.405E-02    0.503E-02
DAV:   9    -0.860504479111E+03   -0.19332E-04   -0.11544E-04  2088   0.214E-02    0.431E-02
DAV:  10    -0.860504496302E+03   -0.17191E-04   -0.34626E-05  1552   0.122E-02    0.329E-02
DAV:  11    -0.860504501964E+03   -0.56626E-05   -0.10298E-04  1752   0.275E-02    0.172E-02
DAV:  12    -0.860504524934E+03   -0.22969E-04   -0.35941E-05  1752   0.208E-02    0.134E-02
DAV:  13    -0.860504531787E+03   -0.68537E-05   -0.35618E-05  1792   0.196E-02
  23 F= -.86050453E+03 E0= -.86050453E+03  d E =-.113501E+00  mag=     2.0000
 BRION: g(F)=  0.858E+00 g(S)=  0.000E+00 retain N=  3 mean eig= 0.73
 eig:   1.768  0.215  0.215
 bond charge predicted
       N       E                     dE             d eps       ncg     rms          rms(c)
DAV:   1    -0.860541364201E+03   -0.36839E-01   -0.41600E+00  1728   0.316E+00    0.593E-01
DAV:   2    -0.860551836876E+03   -0.10473E-01   -0.12170E-01  2032   0.523E-01    0.339E-01
DAV:   3    -0.860552252876E+03   -0.41600E-03   -0.47007E-03  2080   0.162E-01    0.203E-01
DAV:   4    -0.860551586745E+03    0.66613E-03   -0.18838E-03  2096   0.989E-02    0.111E-01
DAV:   5    -0.860551425326E+03    0.16142E-03   -0.11055E-03  2120   0.867E-02    0.425E-02
DAV:   6    -0.860551476189E+03   -0.50864E-04   -0.49664E-04  2072   0.420E-02    0.338E-02
DAV:   7    -0.860551470207E+03    0.59818E-05   -0.64462E-05  1840   0.143E-02
  24 F= -.86055147E+03 E0= -.86055147E+03  d E =-.469384E-01  mag=     2.0000
 BRION: g(F)=  0.624E+00 g(S)=  0.000E+00 retain N=  2 mean eig= 1.30
 eig:   0.219  2.372
 bond charge predicted
       N       E                     dE             d eps       ncg     rms          rms(c)
DAV:   1    -0.860804625837E+03   -0.25315E+00   -0.86522E+01  1728   0.118E+01    0.308E+00
DAV:   2    -0.861091186222E+03   -0.28656E+00   -0.24188E+00  2040   0.211E+00    0.158E+00
DAV:   3    -0.861141150760E+03   -0.49965E-01   -0.12645E-01  2024   0.592E-01    0.106E+00
DAV:   4    -0.861150250976E+03   -0.91002E-02   -0.76723E-02  2056   0.272E-01    0.139E+00
DAV:   5    -0.861151303307E+03   -0.10523E-02   -0.14075E-02  1984   0.144E-01    0.137E+00
DAV:   6    -0.861145743174E+03    0.55601E-02   -0.13180E-03  1944   0.533E-02    0.136E+00
DAV:   7    -0.861144438253E+03    0.13049E-02   -0.86353E-04  2008   0.329E-02    0.146E+00
DAV:   8    -0.861153808838E+03   -0.93706E-02   -0.21870E-02  2016   0.247E-01    0.113E+00
DAV:   9    -0.861175090859E+03   -0.21282E-01   -0.20374E-01  2112   0.482E-01    0.115E+00
DAV:  10    -0.861188589526E+03   -0.13499E-01   -0.48299E-02  2080   0.207E-01    0.129E+00
DAV:  11    -0.861177371743E+03    0.11218E-01   -0.21086E-02  1888   0.128E-01    0.128E+00
DAV:  12    -0.861169355550E+03    0.80162E-02   -0.27560E-02  2168   0.137E-01    0.129E+00
DAV:  13    -0.861168333175E+03    0.10224E-02   -0.77569E-03  1928   0.849E-02    0.126E+00
DAV:  14    -0.861135152692E+03    0.33180E-01   -0.14917E-01  2000   0.301E-01    0.140E+00
DAV:  15    -0.861166848856E+03   -0.31696E-01   -0.21410E-01  1856   0.415E-01    0.125E+00
DAV:  16    -0.861174118589E+03   -0.72697E-02   -0.30272E-01  2112   0.494E-01    0.126E+00
DAV:  17    -0.861169505806E+03    0.46128E-02   -0.57502E-01  2200   0.719E-01    0.213E+00
DAV:  18    -0.861206777641E+03   -0.37272E-01   -0.77153E-02  1992   0.347E-01    0.311E+00
DAV:  19    -0.861195650356E+03    0.11127E-01   -0.39063E-02  1832   0.200E-01    0.319E+00
DAV:  20    -0.861212434051E+03   -0.16784E-01   -0.63437E-02  1960   0.250E-01    0.382E+00
DAV:  21    -0.861207660995E+03    0.47731E-02   -0.10588E-02  1840   0.914E-02    0.356E+00
DAV:  22    -0.861207932624E+03   -0.27163E-03   -0.54021E-03  2072   0.787E-02    0.326E+00
DAV:  23    -0.861208354965E+03   -0.42234E-03   -0.21613E-03  1992   0.504E-02    0.314E+00
DAV:  24    -0.861183826043E+03    0.24529E-01   -0.37239E-01  2136   0.523E-01    0.228E+00
DAV:  25    -0.861185924363E+03   -0.20983E-02   -0.75323E-02  2144   0.272E-01    0.241E+00
DAV:  26    -0.861186127629E+03   -0.20327E-03   -0.24193E-03  1816   0.799E-02    0.240E+00
DAV:  27    -0.861185689356E+03    0.43827E-03   -0.13183E-03  2008   0.339E-02    0.235E+00
DAV:  28    -0.861186612265E+03   -0.92291E-03   -0.26442E-02  2104   0.159E-01    0.202E+00
DAV:  29    -0.861178810410E+03    0.78019E-02   -0.42118E-01  2136   0.610E-01    0.252E+00
DAV:  30    -0.861214144692E+03   -0.35334E-01   -0.23728E-01  2160   0.535E-01    0.364E+00
DAV:  31    -0.861230980569E+03   -0.16836E-01   -0.16651E-02  1840   0.188E-01    0.346E+00
DAV:  32    -0.861234128128E+03   -0.31476E-02   -0.12549E-03  2112   0.350E-02    0.358E+00
DAV:  33    -0.861240449805E+03   -0.63217E-02   -0.23352E-03  2008   0.626E-02    0.353E+00
DAV:  34    -0.861226019091E+03    0.14431E-01   -0.12199E-01  1920   0.277E-01    0.219E+00
DAV:  35    -0.861221054784E+03    0.49643E-02   -0.59511E-02  2088   0.314E-01    0.108E+00
DAV:  36    -0.861231883742E+03   -0.10829E-01   -0.94664E-03  1832   0.161E-01    0.955E-01
DAV:  37    -0.861238773887E+03   -0.68901E-02   -0.60972E-03  2112   0.127E-01    0.118E+00
DAV:  38    -0.861233663508E+03    0.51104E-02   -0.61025E-03  1880   0.117E-01    0.782E-01
DAV:  39    -0.861227083348E+03    0.65802E-02   -0.13785E-02  2080   0.175E-01    0.646E-01
DAV:  40    -0.861223449357E+03    0.36340E-02   -0.27536E-02  2168   0.179E-01    0.823E-01
DAV:  41    -0.861219154727E+03    0.42946E-02   -0.13818E-02  2208   0.124E-01    0.832E-01
DAV:  42    -0.861211097203E+03    0.80575E-02   -0.28627E-02  2168   0.160E-01    0.895E-01
DAV:  43    -0.861210185128E+03    0.91208E-03   -0.60255E-03  1912   0.839E-02    0.896E-01
DAV:  44    -0.861210373774E+03   -0.18865E-03   -0.11526E-03  1816   0.439E-02    0.903E-01
DAV:  45    -0.861212263821E+03   -0.18900E-02   -0.79796E-03  2056   0.863E-02    0.912E-01
DAV:  46    -0.861216606802E+03   -0.43430E-02   -0.39738E-02  2136   0.197E-01    0.104E+00
DAV:  47    -0.861221075781E+03   -0.44690E-02   -0.38229E-03  1824   0.851E-02    0.102E+00
DAV:  48    -0.861222315580E+03   -0.12398E-02   -0.19589E-03  1936   0.524E-02    0.102E+00
DAV:  49    -0.861227168892E+03   -0.48533E-02   -0.48118E-02  2064   0.256E-01    0.124E+00
DAV:  50    -0.861235257494E+03   -0.80886E-02   -0.67857E-03  1864   0.101E-01    0.131E+00
DAV:  51    -0.861235710741E+03   -0.45325E-03   -0.80937E-04  1896   0.437E-02    0.126E+00
DAV:  52    -0.861205552530E+03    0.30158E-01   -0.13783E-01  2000   0.420E-01    0.994E-01
DAV:  53    -0.861215785314E+03   -0.10233E-01   -0.11866E-02  1840   0.142E-01    0.960E-01
DAV:  54    -0.861207978686E+03    0.78066E-02   -0.34156E-02  2176   0.167E-01    0.103E+00
DAV:  55    -0.861123277831E+03    0.84701E-01   -0.92067E-01  2096   0.815E-01    0.163E+00
DAV:  56    -0.861158210546E+03   -0.34933E-01   -0.46516E-02  1864   0.270E-01    0.159E+00
DAV:  57    -0.861162589298E+03   -0.43788E-02   -0.41109E-03  2032   0.806E-02    0.158E+00
DAV:  58    -0.861164356447E+03   -0.17671E-02   -0.83859E-04  2104   0.314E-02    0.156E+00
DAV:  59    -0.861162635448E+03    0.17210E-02   -0.94211E-04  1840   0.318E-02    0.159E+00
DAV:  60    -0.861161527950E+03    0.11075E-02   -0.35535E-04  1800   0.208E-02    0.157E+00
DAV:  61    -0.861166688252E+03   -0.51603E-02   -0.42539E-03  2080   0.678E-02    0.142E+00
DAV:  62    -0.861169956084E+03   -0.32678E-02   -0.27045E-03  1952   0.635E-02    0.131E+00
DAV:  63    -0.861169032132E+03    0.92395E-03   -0.15138E-03  1808   0.377E-02    0.132E+00
DAV:  64    -0.861170098785E+03   -0.10667E-02   -0.12997E-04  1792   0.120E-02    0.132E+00
DAV:  65    -0.861167622263E+03    0.24765E-02   -0.35889E-03  1816   0.546E-02    0.136E+00
DAV:  66    -0.861167418714E+03    0.20355E-03   -0.29580E-04  1720   0.202E-02    0.134E+00
DAV:  67    -0.861166902185E+03    0.51653E-03   -0.12162E-03  1824   0.299E-02    0.132E+00
DAV:  68    -0.861164735938E+03    0.21662E-02   -0.15571E-03  2008   0.331E-02    0.135E+00
DAV:  69    -0.861163979203E+03    0.75674E-03   -0.93913E-05  1736   0.137E-02    0.136E+00
DAV:  70    -0.861163729603E+03    0.24960E-03   -0.20264E-05  1424   0.437E-03    0.136E+00
DAV:  71    -0.861158236378E+03    0.54932E-02   -0.74192E-03  1952   0.792E-02    0.145E+00
DAV:  72    -0.861118528235E+03    0.39708E-01   -0.51963E-02  2144   0.266E-01    0.193E+00
DAV:  73    -0.861120815639E+03   -0.22874E-02   -0.53578E-03  1880   0.847E-02    0.189E+00
DAV:  74    -0.861123741071E+03   -0.29254E-02   -0.15585E-04  1880   0.172E-02    0.187E+00
DAV:  75    -0.861129688659E+03   -0.59476E-02   -0.24905E-03  1936   0.497E-02    0.178E+00
DAV:  76    -0.861139301146E+03   -0.96125E-02   -0.98994E-03  2176   0.942E-02    0.161E+00
DAV:  77    -0.861142418499E+03   -0.31174E-02   -0.12709E-02  2048   0.871E-02    0.153E+00
DAV:  78    -0.861147528905E+03   -0.51104E-02   -0.28759E-03  1992   0.470E-02    0.149E+00
DAV:  79    -0.861150818286E+03   -0.32894E-02   -0.10280E-03  1864   0.267E-02    0.146E+00
DAV:  80    -0.861150393898E+03    0.42439E-03   -0.67834E-04  1800   0.241E-02    0.150E+00
DAV:  81    -0.861152191658E+03   -0.17978E-02   -0.13448E-03  1992   0.338E-02    0.150E+00
DAV:  82    -0.861164381681E+03   -0.12190E-01   -0.95818E-02  2024   0.272E-01    0.117E+00
DAV:  83    -0.861173814138E+03   -0.94325E-02   -0.61716E-03  1864   0.934E-02    0.114E+00
DAV:  84    -0.861179340005E+03   -0.55259E-02   -0.49629E-02  2112   0.174E-01    0.985E-01
DAV:  85    -0.861185971947E+03   -0.66319E-02   -0.35250E-03  1872   0.703E-02    0.981E-01
DAV:  86    -0.861184675184E+03    0.12968E-02   -0.35278E-03  1776   0.578E-02    0.100E+00
DAV:  87    -0.861181011495E+03    0.36637E-02   -0.42233E-03  2088   0.605E-02    0.105E+00
DAV:  88    -0.861177408292E+03    0.36032E-02   -0.83285E-03  2128   0.792E-02    0.105E+00
DAV:  89    -0.861177785795E+03   -0.37750E-03   -0.68086E-04  1808   0.369E-02    0.104E+00
DAV:  90    -0.861178977565E+03   -0.11918E-02   -0.20331E-03  1864   0.375E-02    0.102E+00
DAV:  91    -0.861178895779E+03    0.81786E-04   -0.33098E-04  1536   0.191E-02    0.103E+00
DAV:  92    -0.861177764245E+03    0.11315E-02   -0.41287E-01  2080   0.496E-01    0.106E+00
DAV:  93    -0.861202923992E+03   -0.25160E-01   -0.17738E-02  1856   0.180E-01    0.101E+00
DAV:  94    -0.861201862758E+03    0.10612E-02   -0.85605E-04  1984   0.382E-02    0.104E+00
DAV:  95    -0.861203707562E+03   -0.18448E-02   -0.43104E-03  2136   0.633E-02    0.108E+00
DAV:  96    -0.861197242853E+03    0.64647E-02   -0.15510E-02  1896   0.124E-01    0.103E+00
DAV:  97    -0.861188255729E+03    0.89871E-02   -0.47278E-01  2080   0.736E-01    0.186E+00
DAV:  98    -0.861215442860E+03   -0.27187E-01   -0.37184E-02  1872   0.239E-01    0.158E+00
DAV:  99    -0.861211243674E+03    0.41992E-02   -0.35032E-02  1872   0.258E-01    0.108E+00
DAV: 100    -0.861215442835E+03   -0.41992E-02   -0.17489E-02  1976   0.146E-01
  25 F= -.86121544E+03 E0= -.86121544E+03  d E =-.663973E+00  mag=     2.0004
 BRION: g(F)=  0.171E+01 g(S)=  0.000E+00 retain N=  3 mean eig= 1.31
 eig:   3.321  0.275  0.342
 bond charge predicted
       N       E                     dE             d eps       ncg     rms          rms(c)
DAV:   1    -0.860414886260E+03    0.79636E+00   -0.38708E+01  1728   0.875E+00    0.227E+00
DAV:   2    -0.860607258506E+03   -0.19237E+00   -0.16875E+00  2016   0.155E+00    0.380E+00
DAV:   3    -0.860536769090E+03    0.70489E-01   -0.46539E-01  2248   0.789E-01    0.139E+00
DAV:   4    -0.860545400890E+03   -0.86318E-02   -0.35550E-02  1984   0.305E-01    0.102E+00
DAV:   5    -0.860548775496E+03   -0.33746E-02   -0.31445E-02  2160   0.271E-01    0.990E-01
DAV:   6    -0.860553881042E+03   -0.51055E-02   -0.25016E-02  2072   0.143E-01    0.119E+00
DAV:   7    -0.860551373695E+03    0.25073E-02   -0.13070E-03  1880   0.574E-02    0.118E+00
DAV:   8    -0.860547996336E+03    0.33774E-02   -0.59506E-03  2088   0.874E-02    0.117E+00
DAV:   9    -0.860535472746E+03    0.12524E-01   -0.56894E-02  2064   0.200E-01    0.973E-01
DAV:  10    -0.860523054995E+03    0.12418E-01   -0.84490E-02  2256   0.284E-01    0.918E-01
DAV:  11    -0.860524365179E+03   -0.13102E-02   -0.44828E-02  2096   0.195E-01    0.107E+00
DAV:  12    -0.860533621408E+03   -0.92562E-02   -0.49595E-03  1792   0.888E-02    0.117E+00
DAV:  13    -0.860533917457E+03   -0.29605E-03   -0.13775E-04  2064   0.180E-02    0.118E+00
DAV:  14    -0.860534697087E+03   -0.77963E-03   -0.13469E-03  2072   0.684E-02    0.106E+00
DAV:  15    -0.860535632739E+03   -0.93565E-03   -0.57413E-02  2168   0.431E-01    0.657E-01
DAV:  16    -0.860537483229E+03   -0.18505E-02   -0.12310E-02  2032   0.174E-01    0.561E-01
DAV:  17    -0.860537236488E+03    0.24674E-03   -0.39171E-03  2096   0.968E-02    0.480E-01
DAV:  18    -0.860536445558E+03    0.79093E-03   -0.42957E-03  2208   0.897E-02    0.376E-01
DAV:  19    -0.860535197294E+03    0.12483E-02   -0.63527E-03  2120   0.758E-02    0.371E-01
DAV:  20    -0.860533563569E+03    0.16337E-02   -0.12059E-02  2136   0.972E-02    0.351E-01
DAV:  21    -0.860531864285E+03    0.16993E-02   -0.14355E-02  2144   0.110E-01    0.357E-01
DAV:  22    -0.860533736486E+03   -0.18722E-02   -0.83064E-04  1944   0.441E-02    0.343E-01
DAV:  23    -0.860533869007E+03   -0.13252E-03   -0.13701E-05  1568   0.678E-03    0.343E-01
DAV:  24    -0.860533825045E+03    0.43962E-04   -0.49106E-06  1504   0.365E-03    0.346E-01
DAV:  25    -0.860534060941E+03   -0.23590E-03   -0.72589E-05  1544   0.120E-02    0.331E-01
DAV:  26    -0.860534473818E+03   -0.41288E-03   -0.51729E-04  2008   0.288E-02    0.327E-01
DAV:  27    -0.860534972581E+03   -0.49876E-03   -0.14189E-03  2088   0.427E-02    0.363E-01
DAV:  28    -0.860534077210E+03    0.89537E-03   -0.18661E-03  1896   0.486E-02    0.350E-01
DAV:  29    -0.860530404872E+03    0.36723E-02   -0.21416E-02  2104   0.158E-01    0.412E-01
DAV:  30    -0.860530695429E+03   -0.29056E-03   -0.10505E-02  2032   0.119E-01    0.365E-01
DAV:  31    -0.860531315084E+03   -0.61965E-03   -0.56859E-04  1832   0.416E-02    0.327E-01
DAV:  32    -0.860531627345E+03   -0.31226E-03   -0.16798E-03  2048   0.514E-02    0.231E-01
DAV:  33    -0.860532006598E+03   -0.37925E-03   -0.84580E-04  2064   0.391E-02    0.189E-01
DAV:  34    -0.860532133458E+03   -0.12686E-03   -0.25702E-04  1640   0.210E-02    0.178E-01
DAV:  35    -0.860532161073E+03   -0.27614E-04   -0.38131E-04  1960   0.254E-02    0.182E-01
DAV:  36    -0.860532191580E+03   -0.30507E-04   -0.53920E-04  1952   0.290E-02    0.134E-01
DAV:  37    -0.860532199450E+03   -0.78705E-05   -0.46725E-04  2168   0.249E-02    0.988E-02
DAV:  38    -0.860532212539E+03   -0.13088E-04   -0.30361E-04  2008   0.189E-02    0.816E-02
DAV:  39    -0.860532226791E+03   -0.14252E-04   -0.34541E-05  1472   0.810E-03    0.741E-02
DAV:  40    -0.860532228116E+03   -0.13249E-05   -0.49428E-05  1584   0.937E-03
  26 F= -.86053223E+03 E0= -.86053223E+03  d E =0.683215E+00  mag=     2.0000
 BRION: g(F)=  0.291E+01 g(S)=  0.000E+00 retain N=  4 mean eig= 1.77
 eig:   5.716  0.874  0.288  0.209
 bond charge predicted
       N       E                     dE             d eps       ncg     rms          rms(c)
DAV:   1    -0.859514076823E+03    0.10181E+01   -0.10309E+02  1728   0.136E+01    0.343E+00
DAV:   2    -0.859872316696E+03   -0.35824E+00   -0.36908E+00  2016   0.228E+00    0.288E+00
DAV:   3    -0.860014900762E+03   -0.14258E+00   -0.90883E-01  2272   0.118E+00    0.405E+00
DAV:   4    -0.859917114282E+03    0.97786E-01   -0.79550E-01  2176   0.647E-01    0.116E+00
DAV:   5    -0.859936317573E+03   -0.19203E-01   -0.74714E-02  2032   0.364E-01    0.100E+00
DAV:   6    -0.859944165472E+03   -0.78479E-02   -0.32790E-02  2224   0.201E-01    0.105E+00
DAV:   7    -0.859941534706E+03    0.26308E-02   -0.12679E-03  2024   0.576E-02    0.105E+00
DAV:   8    -0.859942926806E+03   -0.13921E-02   -0.18105E-03  2240   0.829E-02    0.109E+00
DAV:   9    -0.859942831511E+03    0.95295E-04   -0.24551E-04  2104   0.243E-02    0.110E+00
DAV:  10    -0.859945674000E+03   -0.28425E-02   -0.22538E-03  1936   0.417E-02    0.113E+00
DAV:  11    -0.859916589461E+03    0.29085E-01   -0.18417E-01  2000   0.294E-01    0.962E-01
DAV:  12    -0.859876718520E+03    0.39871E-01   -0.77790E-01  2144   0.616E-01    0.101E+00
DAV:  13    -0.859886927014E+03   -0.10208E-01   -0.19681E-01  2128   0.400E-01    0.145E+00
DAV:  14    -0.859892633228E+03   -0.57062E-02   -0.84685E-03  1928   0.130E-01    0.145E+00
DAV:  15    -0.859893568077E+03   -0.93485E-03   -0.25214E-04  2088   0.269E-02    0.144E+00
DAV:  16    -0.859900500537E+03   -0.69325E-02   -0.23928E-02  2104   0.199E-01    0.971E-01
DAV:  17    -0.859906840114E+03   -0.63396E-02   -0.14004E-01  2000   0.450E-01    0.536E-01
DAV:  18    -0.859912531377E+03   -0.56913E-02   -0.13916E-02  1976   0.209E-01    0.363E-01
DAV:  19    -0.859912600451E+03   -0.69074E-04   -0.90801E-03  2096   0.150E-01    0.178E-01
DAV:  20    -0.859912797614E+03   -0.19716E-03   -0.25595E-03  1992   0.763E-02    0.159E-01
DAV:  21    -0.859913009544E+03   -0.21193E-03   -0.23648E-03  2000   0.658E-02    0.103E-01
DAV:  22    -0.859912928321E+03    0.81223E-04   -0.17975E-03  2160   0.632E-02    0.761E-02
DAV:  23    -0.859912944761E+03   -0.16441E-04   -0.13499E-03  2216   0.582E-02    0.486E-02
DAV:  24    -0.859913016726E+03   -0.71965E-04   -0.34180E-04  2040   0.242E-02    0.520E-02
DAV:  25    -0.859913044950E+03   -0.28224E-04   -0.10687E-04  1640   0.131E-02    0.381E-02
DAV:  26    -0.859913052957E+03   -0.80070E-05   -0.17287E-04  2024   0.189E-02    0.240E-02
DAV:  27    -0.859913064011E+03   -0.11055E-04   -0.36797E-04  1792   0.204E-02    0.280E-02
DAV:  28    -0.859913095576E+03   -0.31564E-04   -0.76586E-05  1704   0.148E-02    0.670E-03
DAV:  29    -0.859913102412E+03   -0.68360E-05   -0.91343E-06  1488   0.732E-03
  27 F= -.85991310E+03 E0= -.85991310E+03  d E =0.619126E+00  mag=     2.0000
 BRION: g(F)=  0.102E+01 g(S)=  0.000E+00 retain N=  2 mean eig= 3.52
 eig:   0.279  6.766
 bond charge predicted
       N       E                     dE             d eps       ncg     rms          rms(c)
DAV:   1    -0.859843794152E+03    0.69301E-01   -0.83850E+01  1728   0.132E+01    0.267E+00
DAV:   2    -0.860117332107E+03   -0.27354E+00   -0.32914E+00  2392   0.351E+00    0.414E+00
DAV:   3    -0.860018640960E+03    0.98691E-01   -0.34742E-01  2352   0.148E+00    0.242E+00
DAV:   4    -0.859991969012E+03    0.26672E-01   -0.10043E-01  2016   0.563E-01    0.110E+00
DAV:   5    -0.859999544463E+03   -0.75755E-02   -0.88316E-02  2008   0.364E-01    0.135E+00
DAV:   6    -0.860005348128E+03   -0.58037E-02   -0.18903E-02  2240   0.190E-01    0.142E+00
DAV:   7    -0.859988528654E+03    0.16819E-01   -0.29203E-02  2048   0.197E-01    0.137E+00
DAV:   8    -0.859934657861E+03    0.53871E-01   -0.41419E-01  2240   0.639E-01    0.112E+00
DAV:   9    -0.859956839527E+03   -0.22182E-01   -0.65800E-02  2064   0.259E-01    0.884E-01
DAV:  10    -0.859962732210E+03   -0.58927E-02   -0.42085E-02  1992   0.167E-01    0.612E-01
DAV:  11    -0.859969105892E+03   -0.63737E-02   -0.43360E-02  1992   0.180E-01    0.381E-01
DAV:  12    -0.859969061567E+03    0.44325E-04   -0.19540E-02  2144   0.194E-01    0.291E-01
DAV:  13    -0.859971214281E+03   -0.21527E-02   -0.47631E-03  2112   0.119E-01    0.223E-01
DAV:  14    -0.859971129073E+03    0.85208E-04   -0.13970E-03  2088   0.746E-02    0.154E-01
DAV:  15    -0.859970117303E+03    0.10118E-02   -0.45141E-03  2192   0.102E-01    0.115E-01
DAV:  16    -0.859970116299E+03    0.10039E-05   -0.36722E-03  2216   0.752E-02    0.766E-02
DAV:  17    -0.859970411640E+03   -0.29534E-03   -0.55598E-04  1992   0.406E-02    0.514E-02
[...]
DAV:   3    -0.871639151344E+03    0.57620E-06   -0.17522E-06   976   0.203E-03
 463 F= -.87163915E+03 E0= -.87163915E+03  d E =0.402076E-04  mag=     0.0000
 BRION: g(F)=  0.112E-03 g(S)=  0.000E+00 retain N=  2 mean eig= 0.19
 eig:   0.284  0.104
 bond charge predicted
       N       E                     dE             d eps       ncg     rms          rms(c)
DAV:   1    -0.871639200069E+03   -0.48149E-04   -0.32144E-02  1728   0.208E-01    0.294E-02
DAV:   2    -0.871639263255E+03   -0.63186E-04   -0.69106E-04  1904   0.255E-02    0.197E-02
DAV:   3    -0.871639259510E+03    0.37455E-05   -0.67570E-06  1472   0.407E-03
 464 F= -.87163926E+03 E0= -.87163926E+03  d E =-.108166E-03  mag=     0.0000
 BRION: g(F)=  0.109E-03 g(S)=  0.000E+00 retain N=  3 mean eig= 0.67
 eig:   1.468  0.274  0.274
 bond charge predicted
       N       E                     dE             d eps       ncg     rms          rms(c)
DAV:   1    -0.871639271724E+03   -0.84689E-05   -0.45452E-04  1632   0.257E-02    0.559E-03
DAV:   2    -0.871639272239E+03   -0.51512E-06   -0.68507E-06  1104   0.325E-03
 465 F= -.87163927E+03 E0= -.87163927E+03  d E =-.127296E-04  mag=    -0.0000
 BRION: g(F)=  0.943E-04 g(S)=  0.000E+00 retain N=  4 mean eig= 1.48
 eig:   2.577  2.577  0.504  0.259
 bond charge predicted
       N       E                     dE             d eps       ncg     rms          rms(c)
DAV:   1    -0.871639261055E+03    0.10669E-04   -0.10422E-01  1728   0.382E-01    0.555E-02
DAV:   2    -0.871639464788E+03   -0.20373E-03   -0.22364E-03  1952   0.468E-02    0.363E-02
DAV:   3    -0.871639453613E+03    0.11175E-04   -0.23479E-05  1584   0.769E-03    0.220E-02
DAV:   4    -0.871639451098E+03    0.25155E-05   -0.18592E-05  1376   0.727E-03
 466 F= -.87163945E+03 E0= -.87163945E+03  d E =-.178858E-03  mag=     0.0000
 BRION: g(F)=  0.170E-03 g(S)=  0.000E+00 retain N=  5 mean eig= 1.63
 eig:   3.654  3.654  0.343  0.343  0.180
 bond charge predicted
       N       E                     dE             d eps       ncg     rms          rms(c)
DAV:   1    -0.871639387003E+03    0.66610E-04   -0.17274E-01  1744   0.486E-01    0.717E-02
DAV:   2    -0.871639722248E+03   -0.33525E-03   -0.36716E-03  1904   0.588E-02    0.460E-02
DAV:   3    -0.871639704547E+03    0.17701E-04   -0.39525E-05  1680   0.947E-03    0.279E-02
DAV:   4    -0.871639700152E+03    0.43948E-05   -0.30155E-05  1376   0.856E-03
 467 F= -.87163970E+03 E0= -.87163970E+03  d E =-.249055E-03  mag=    -0.0000
 BRION: g(F)=  0.112E-03 g(S)=  0.000E+00 retain N=  4 mean eig= 1.55
 eig:   4.103  0.978  0.978  0.151
 bond charge predicted
       N       E                     dE             d eps       ncg     rms          rms(c)
DAV:   1    -0.871637976251E+03    0.17283E-02   -0.69122E-01  1728   0.962E-01    0.137E-01
DAV:   2    -0.871639287049E+03   -0.13108E-02   -0.14414E-02  1872   0.115E-01    0.915E-02
DAV:   3    -0.871639217655E+03    0.69395E-04   -0.14492E-04  1872   0.173E-02    0.559E-02
DAV:   4    -0.871639204421E+03    0.13234E-04   -0.11846E-04  1520   0.159E-02    0.116E-02
DAV:   5    -0.871639207368E+03   -0.29474E-05   -0.29305E-05  1568   0.678E-03
 468 F= -.87163921E+03 E0= -.87163921E+03  d E =0.492784E-03  mag=     0.0000
 BRION: g(F)=  0.183E-03 g(S)=  0.000E+00 retain N=  4 mean eig= 1.33
 eig:   0.772  0.772  0.826  2.948
 bond charge predicted
       N       E                     dE             d eps       ncg     rms          rms(c)
DAV:   1    -0.871639232222E+03   -0.27801E-04   -0.25090E-03  1728   0.694E-02    0.860E-03
DAV:   2    -0.871639236279E+03   -0.40576E-05   -0.56034E-05  1792   0.974E-03
 469 F= -.87163924E+03 E0= -.87163924E+03  d E =-.289112E-04  mag=     0.0000
 BRION: g(F)=  0.157E-03 g(S)=  0.000E+00 retain N=  5 mean eig= 2.52
 eig:   7.211  3.246  0.414  0.414  1.304
 bond charge predicted
       N       E                     dE             d eps       ncg     rms          rms(c)
DAV:   1    -0.871638838224E+03    0.39400E-03   -0.10858E-01  1728   0.379E-01    0.544E-02
DAV:   2    -0.871639050133E+03   -0.21191E-03   -0.22937E-03  1888   0.454E-02    0.357E-02
DAV:   3    -0.871639040426E+03    0.97070E-05   -0.21885E-05  1616   0.701E-03
 470 F= -.87163904E+03 E0= -.87163904E+03  d E =0.195853E-03  mag=     0.0000
 BRION: g(F)=  0.107E-03 g(S)=  0.000E+00 retain N=  2 mean eig= 0.13
 eig:   0.229  0.039
 bond charge predicted
       N       E                     dE             d eps       ncg     rms          rms(c)
DAV:   1    -0.871639049528E+03    0.60572E-06   -0.31920E-02  1728   0.242E-01    0.284E-02
DAV:   2    -0.871639116772E+03   -0.67245E-04   -0.79910E-04  2080   0.339E-02    0.194E-02
DAV:   3    -0.871639110605E+03    0.61676E-05   -0.11323E-05  1632   0.636E-03
 471 F= -.87163911E+03 E0= -.87163911E+03  d E =-.701785E-04  mag=     0.0000
 BRION: g(F)=  0.268E-03 g(S)=  0.000E+00 retain N=  3 mean eig= 0.28
 eig:   0.251  0.290  0.290
 bond charge predicted
       N       E                     dE             d eps       ncg     rms          rms(c)
DAV:   1    -0.871639175522E+03   -0.58749E-04   -0.13460E-02  1728   0.153E-01    0.214E-02
DAV:   2    -0.871639201777E+03   -0.26255E-04   -0.30994E-04  2080   0.213E-02    0.147E-02
DAV:   3    -0.871639199318E+03    0.24588E-05   -0.40559E-06  1248   0.419E-03
 472 F= -.87163920E+03 E0= -.87163920E+03  d E =-.887130E-04  mag=    -0.0000
 BRION: g(F)=  0.969E-04 g(S)=  0.000E+00 retain N=  3 mean eig= 2.82
 eig:   7.874  0.297  0.297
 bond charge predicted
       N       E                     dE             d eps       ncg     rms          rms(c)
DAV:   1    -0.871639220764E+03   -0.18987E-04   -0.15885E-03  1632   0.491E-02    0.799E-03
DAV:   2    -0.871639223383E+03   -0.26188E-05   -0.30678E-05  1568   0.626E-03
 473 F= -.87163922E+03 E0= -.87163922E+03  d E =-.240648E-04  mag=    -0.0000
 BRION: g(F)=  0.795E-04 g(S)=  0.000E+00 retain N=  2 mean eig= 0.30
 eig:   0.303  0.303
 bond charge predicted
       N       E                     dE             d eps       ncg     rms          rms(c)
DAV:   1    -0.871639272957E+03   -0.52193E-04   -0.24164E-02  1744   0.179E-01    0.277E-02
DAV:   2    -0.871639317617E+03   -0.44660E-04   -0.49889E-04  1952   0.215E-02    0.189E-02
DAV:   3    -0.871639314602E+03    0.30146E-05   -0.52355E-06  1296   0.375E-03
 474 F= -.87163931E+03 E0= -.87163931E+03  d E =-.912196E-04  mag=    -0.0000
 BRION: g(F)=  0.106E-03 g(S)=  0.000E+00 retain N=  3 mean eig= 0.46
 eig:   0.697  0.337  0.337
 bond charge predicted
       N       E                     dE             d eps       ncg     rms          rms(c)
DAV:   1    -0.871639328262E+03   -0.10645E-04   -0.60198E-04  1632   0.289E-02    0.582E-03
DAV:   2    -0.871639329109E+03   -0.84708E-06   -0.10438E-05  1232   0.369E-03
 475 F= -.87163933E+03 E0= -.87163933E+03  d E =-.145065E-04  mag=    -0.0000
 BRION: g(F)=  0.876E-04 g(S)=  0.000E+00 retain N=  2 mean eig= 1.20
 eig:   1.197  1.197
 bond charge predicted
       N       E                     dE             d eps       ncg     rms          rms(c)
DAV:   1    -0.871639336704E+03   -0.84420E-05   -0.14542E-03  1712   0.567E-02    0.810E-03
DAV:   2    -0.871639340015E+03   -0.33114E-05   -0.45395E-05  1792   0.882E-03
 476 F= -.87163934E+03 E0= -.87163934E+03  d E =-.109063E-04  mag=    -0.0000
 BRION: g(F)=  0.156E-03 g(S)=  0.000E+00 retain N=  2 mean eig= 0.61
 eig:   0.219  0.999
 bond charge predicted
       N       E                     dE             d eps       ncg     rms          rms(c)
DAV:   1    -0.871639389782E+03   -0.53079E-04   -0.27452E-02  1728   0.194E-01    0.290E-02
DAV:   2    -0.871639443030E+03   -0.53248E-04   -0.58744E-04  1936   0.240E-02    0.191E-02
DAV:   3    -0.871639439731E+03    0.32995E-05   -0.62622E-06  1376   0.389E-03
 477 F= -.87163944E+03 E0= -.87163944E+03  d E =-.997158E-04  mag=    -0.0000
 BRION: g(F)=  0.113E-03 g(S)=  0.000E+00 retain N=  2 mean eig= 1.87
 eig:   0.195  3.548
 bond charge predicted
       N       E                     dE             d eps       ncg     rms          rms(c)
DAV:   1    -0.871639339974E+03    0.10306E-03   -0.12133E-02  1728   0.141E-01    0.189E-02
DAV:   2    -0.871639367408E+03   -0.27434E-04   -0.31283E-04  1952   0.198E-02    0.140E-02
DAV:   3    -0.871639365289E+03    0.21192E-05   -0.38679E-06  1200   0.360E-03
 478 F= -.87163937E+03 E0= -.87163937E+03  d E =0.744417E-04  mag=     0.0000
 BRION: g(F)=  0.189E-03 g(S)=  0.000E+00 retain N=  3 mean eig= 1.42
 eig:   0.162  0.162  3.946
 bond charge predicted
       N       E                     dE             d eps       ncg     rms          rms(c)
DAV:   1    -0.871639370324E+03   -0.29159E-05   -0.10975E-03  1712   0.504E-02    0.685E-03
DAV:   2    -0.871639373562E+03   -0.32384E-05   -0.42473E-05  1648   0.859E-03
 479 F= -.87163937E+03 E0= -.87163937E+03  d E =-.827338E-05  mag=     0.0000
 BRION: g(F)=  0.871E-04 g(S)=  0.000E+00 retain N=  1 mean eig= 0.22
 eig:   0.220
 bond charge predicted
       N       E                     dE             d eps       ncg     rms          rms(c)
DAV:   1    -0.871639410494E+03   -0.40170E-04   -0.19811E-02  1728   0.175E-01    0.231E-02
DAV:   2    -0.871639447784E+03   -0.37290E-04   -0.43187E-04  2048   0.228E-02    0.158E-02
DAV:   3    -0.871639444802E+03    0.29823E-05   -0.51279E-06  1360   0.417E-03
 480 F= -.87163944E+03 E0= -.87163944E+03  d E =-.712392E-04  mag=    -0.0000
 BRION: g(F)=  0.138E-03 g(S)=  0.000E+00 retain N=  2 mean eig= 0.25
 eig:   0.205  0.286
 bond charge predicted
       N       E                     dE             d eps       ncg     rms          rms(c)
DAV:   1    -0.871639470283E+03   -0.22499E-04   -0.19006E-03  1728   0.649E-02    0.880E-03
DAV:   2    -0.871639473449E+03   -0.31657E-05   -0.45936E-05  1744   0.972E-03
 481 F= -.87163947E+03 E0= -.87163947E+03  d E =-.286471E-04  mag=    -0.0000
 BRION: g(F)=  0.799E-04 g(S)=  0.000E+00 retain N=  1 mean eig= 0.32
 eig:   0.316
 bond charge predicted
       N       E                     dE             d eps       ncg     rms          rms(c)
DAV:   1    -0.871639513136E+03   -0.42853E-04   -0.21060E-02  1728   0.174E-01    0.255E-02
DAV:   2    -0.871639551962E+03   -0.38826E-04   -0.44153E-04  2048   0.214E-02    0.170E-02
DAV:   3    -0.871639549100E+03    0.28628E-05   -0.50028E-06  1328   0.363E-03
 482 F= -.87163955E+03 E0= -.87163955E+03  d E =-.756508E-04  mag=     0.0000
 BRION: g(F)=  0.126E-03 g(S)=  0.000E+00 retain N=  2 mean eig= 0.29
 eig:   0.292  0.292
 bond charge predicted
       N       E                     dE             d eps       ncg     rms          rms(c)
DAV:   1    -0.871639566338E+03   -0.14376E-04   -0.71713E-04  1664   0.366E-02    0.613E-03
DAV:   2    -0.871639567813E+03   -0.14745E-05   -0.18601E-05  1232   0.536E-03
 483 F= -.87163957E+03 E0= -.87163957E+03  d E =-.187131E-04  mag=    -0.0000
 BRION: g(F)=  0.844E-04 g(S)=  0.000E+00 retain N=  3 mean eig= 2.16
 eig:   5.999  0.244  0.244
 bond charge predicted
       N       E                     dE             d eps       ncg     rms          rms(c)
DAV:   1    -0.871639590763E+03   -0.24425E-04   -0.27543E-03  1632   0.624E-02    0.996E-03
DAV:   2    -0.871639595890E+03   -0.51271E-05   -0.60192E-05  1696   0.792E-03
 484 F= -.87163960E+03 E0= -.87163960E+03  d E =-.280775E-04  mag=    -0.0000
 BRION: g(F)=  0.918E-04 g(S)=  0.000E+00 retain N=  2 mean eig= 0.33
 eig:   0.332  0.332
 bond charge predicted
       N       E                     dE             d eps       ncg     rms          rms(c)
DAV:   1    -0.871639645702E+03   -0.54939E-04   -0.19363E-02  1744   0.160E-01    0.255E-02
DAV:   2    -0.871639680700E+03   -0.34998E-04   -0.39455E-04  1936   0.190E-02    0.174E-02
DAV:   3    -0.871639678368E+03    0.23323E-05   -0.43201E-06  1296   0.332E-03
 485 F= -.87163968E+03 E0= -.87163968E+03  d E =-.824777E-04  mag=     0.0000
 BRION: g(F)=  0.914E-04 g(S)=  0.000E+00 retain N=  3 mean eig= 1.47
 eig:   0.391  0.391  3.628
 bond charge predicted
       N       E                     dE             d eps       ncg     rms          rms(c)
DAV:   1    -0.871639662956E+03    0.17744E-04   -0.57408E-04  1632   0.286E-02    0.355E-03
DAV:   2    -0.871639664385E+03   -0.14296E-05   -0.15620E-05  1088   0.422E-03
 486 F= -.87163966E+03 E0= -.87163966E+03  d E =0.139824E-04  mag=     0.0000
 BRION: g(F)=  0.980E-04 g(S)=  0.000E+00 retain N=  2 mean eig= 0.77
 eig:   0.151  1.385
 bond charge predicted
       N       E                     dE             d eps       ncg     rms          rms(c)
DAV:   1    -0.871639672029E+03   -0.90731E-05   -0.51118E-03  1728   0.954E-02    0.132E-02
DAV:   2    -0.871639685642E+03   -0.13613E-04   -0.15926E-04  2032   0.144E-02    0.104E-02
DAV:   3    -0.871639684329E+03    0.13127E-05   -0.24418E-06  1072   0.285E-03
 487 F= -.87163968E+03 E0= -.87163968E+03  d E =-.199441E-04  mag=     0.0000
 BRION: g(F)=  0.284E-03 g(S)=  0.000E+00 retain N=  3 mean eig= 1.38
 eig:   3.717  0.115  0.300
 bond charge predicted
       N       E                     dE             d eps       ncg     rms          rms(c)
DAV:   1    -0.871639526222E+03    0.15942E-03   -0.36262E-02  1728   0.223E-01    0.314E-02
DAV:   2    -0.871639597632E+03   -0.71410E-04   -0.78302E-04  1968   0.278E-02    0.220E-02
DAV:   3    -0.871639593070E+03    0.45624E-05   -0.77555E-06  1456   0.463E-03
 488 F= -.87163959E+03 E0= -.87163959E+03  d E =0.912594E-04  mag=     0.0000
 BRION: g(F)=  0.101E-03 g(S)=  0.000E+00 retain N=  1 mean eig= 0.09
 eig:   0.086
 bond charge predicted
       N       E                     dE             d eps       ncg     rms          rms(c)
DAV:   1    -0.871639579347E+03    0.18285E-04   -0.22937E-02  1728   0.203E-01    0.256E-02
DAV:   2    -0.871639629187E+03   -0.49840E-04   -0.60923E-04  2080   0.297E-02    0.174E-02
DAV:   3    -0.871639623448E+03    0.57396E-05   -0.96191E-06  1536   0.620E-03
 489 F= -.87163962E+03 E0= -.87163962E+03  d E =-.303775E-04  mag=    -0.0000
 BRION: g(F)=  0.470E-03 g(S)=  0.000E+00 retain N=  2 mean eig= 0.18
 eig:   0.182  0.182
 bond charge predicted
       N       E                     dE             d eps       ncg     rms          rms(c)
DAV:   1    -0.871639679875E+03   -0.50688E-04   -0.41705E-03  1728   0.981E-02    0.131E-02
DAV:   2    -0.871639691779E+03   -0.11905E-04   -0.15263E-04  2064   0.166E-02    0.103E-02
DAV:   3    -0.871639690063E+03    0.17161E-05   -0.26086E-06  1056   0.356E-03
 490 F= -.87163969E+03 E0= -.87163969E+03  d E =-.666156E-04  mag=    -0.0000
 BRION: g(F)=  0.865E-04 g(S)=  0.000E+00 retain N=  1 mean eig= 0.21
 eig:   0.209
 bond charge predicted
       N       E                     dE             d eps       ncg     rms          rms(c)
DAV:   1    -0.871639726468E+03   -0.34689E-04   -0.20780E-02  1728   0.175E-01    0.242E-02
DAV:   2    -0.871639764366E+03   -0.37898E-04   -0.43567E-04  2064   0.223E-02    0.162E-02
DAV:   3    -0.871639761319E+03    0.30467E-05   -0.52706E-06  1424   0.446E-03
 491 F= -.87163976E+03 E0= -.87163976E+03  d E =-.712563E-04  mag=    -0.0000
 BRION: g(F)=  0.153E-03 g(S)=  0.000E+00 retain N=  2 mean eig= 0.19
 eig:   0.316  0.070
 bond charge predicted
       N       E                     dE             d eps       ncg     rms          rms(c)
DAV:   1    -0.871639782936E+03   -0.18570E-04   -0.11104E-03  1696   0.499E-02    0.736E-03
DAV:   2    -0.871639785192E+03   -0.22553E-05   -0.31108E-05  1472   0.784E-03
 492 F= -.87163979E+03 E0= -.87163979E+03  d E =-.238723E-04  mag=    -0.0000
 BRION: g(F)=  0.862E-04 g(S)=  0.000E+00 retain N=  2 mean eig= 3.04
 eig:   0.246  5.832
 bond charge predicted
       N       E                     dE             d eps       ncg     rms          rms(c)
DAV:   1    -0.871639815475E+03   -0.32538E-04   -0.44950E-03  1664   0.792E-02    0.125E-02
DAV:   2    -0.871639823471E+03   -0.79959E-05   -0.93705E-05  1808   0.990E-03
 493 F= -.87163982E+03 E0= -.87163982E+03  d E =-.382790E-04  mag=    -0.0000
 BRION: g(F)=  0.806E-04 g(S)=  0.000E+00 retain N=  2 mean eig= 0.33
 eig:   0.326  0.326
 bond charge predicted
       N       E                     dE             d eps       ncg     rms          rms(c)
DAV:   1    -0.871639870877E+03   -0.55402E-04   -0.14752E-02  1728   0.142E-01    0.231E-02
DAV:   2    -0.871639896192E+03   -0.25315E-04   -0.29528E-04  2032   0.170E-02    0.159E-02
DAV:   3    -0.871639894085E+03    0.21067E-05   -0.34368E-06  1248   0.321E-03
 494 F= -.87163989E+03 E0= -.87163989E+03  d E =-.706143E-04  mag=    -0.0000
 BRION: g(F)=  0.961E-04 g(S)=  0.000E+00 retain N=  3 mean eig= 0.75
 eig:   0.348  0.348  1.541
 bond charge predicted
       N       E                     dE             d eps       ncg     rms          rms(c)
DAV:   1    -0.871639888316E+03    0.78758E-05   -0.83921E-05  1536   0.113E-02    0.207E-03
DAV:   2    -0.871639888590E+03   -0.27382E-06   -0.33219E-06  1008   0.228E-03
 495 F= -.87163989E+03 E0= -.87163989E+03  d E =0.549527E-05  mag=    -0.0000
 BRION: g(F)=  0.100E-03 g(S)=  0.000E+00 retain N=  2 mean eig= 1.36
 eig:   0.387  2.339
 bond charge predicted
       N       E                     dE             d eps       ncg     rms          rms(c)
DAV:   1    -0.871639830243E+03    0.58073E-04   -0.48240E-03  1696   0.855E-02    0.132E-02
DAV:   2    -0.871639843133E+03   -0.12891E-04   -0.15144E-04  1920   0.126E-02    0.998E-03
DAV:   3    -0.871639841729E+03    0.14038E-05   -0.27461E-06  1168   0.281E-03
 496 F= -.87163984E+03 E0= -.87163984E+03  d E =0.468604E-04  mag=    -0.0000
 BRION: g(F)=  0.367E-03 g(S)=  0.000E+00 retain N=  3 mean eig= 2.53
 eig:   6.944  0.451  0.194
 bond charge predicted
       N       E                     dE             d eps       ncg     rms          rms(c)
DAV:   1    -0.871639721400E+03    0.12173E-03   -0.27706E-02  1728   0.182E-01    0.288E-02
DAV:   2    -0.871639774166E+03   -0.52766E-04   -0.58630E-04  2016   0.220E-02    0.205E-02
DAV:   3    -0.871639770231E+03    0.39350E-05   -0.61878E-06  1392   0.403E-03
 497 F= -.87163977E+03 E0= -.87163977E+03  d E =0.714986E-04  mag=    -0.0000
 BRION: g(F)=  0.112E-03 g(S)=  0.000E+00 retain N=  2 mean eig= 3.89
 eig:   0.206  7.576
 bond charge predicted
       N       E                     dE             d eps       ncg     rms          rms(c)
DAV:   1    -0.871639785390E+03   -0.11224E-04   -0.72340E-02  1728   0.308E-01    0.431E-02
DAV:   2    -0.871639923078E+03   -0.13769E-03   -0.15292E-03  1952   0.381E-02    0.295E-02
DAV:   3    -0.871639913706E+03    0.93722E-05   -0.15417E-05  1584   0.652E-03
 498 F= -.87163991E+03 E0= -.87163991E+03  d E =-.143475E-03  mag=    -0.0000
 BRION: g(F)=  0.180E-03 g(S)=  0.000E+00 retain N=  3 mean eig= 2.73
 eig:   7.704  0.219  0.270
 bond charge predicted
       N       E                     dE             d eps       ncg     rms          rms(c)
DAV:   1    -0.871639942434E+03   -0.19356E-04   -0.20322E-03  1696   0.635E-02    0.985E-03
DAV:   2    -0.871639945853E+03   -0.34194E-05   -0.45035E-05  1744   0.927E-03
 499 F= -.87163995E+03 E0= -.87163995E+03  d E =-.321478E-04  mag=    -0.0000
 BRION: g(F)=  0.810E-04 g(S)=  0.000E+00 retain N=  3 mean eig= 1.57
 eig:   4.444  0.068  0.194
 bond charge predicted
       N       E                     dE             d eps       ncg     rms          rms(c)
DAV:   1    -0.871639990718E+03   -0.48284E-04   -0.14472E-02  1712   0.139E-01    0.220E-02
DAV:   2    -0.871640017044E+03   -0.26327E-04   -0.29624E-04  1984   0.167E-02    0.146E-02
DAV:   3    -0.871640015366E+03    0.16778E-05   -0.32959E-06  1200   0.307E-03
 500 F= -.87164002E+03 E0= -.87164002E+03  d E =-.695131E-04  mag=    -0.0000
 BRION: g(F)=  0.921E-04 g(S)=  0.000E+00 retain N=  2 mean eig= 0.21
 eig:   0.264  0.163
--------------------------------------------------------
>>>  Job finished at Fri Jun 24 07:28:54 EDT 2022
