 vasp.5.4.4.18Apr17-6-g9f103f2a35 (build Dec 31 2018 11:41:54) complex          
  
 executed on             LinuxIFC date 2022.04.22  20:02:39
 running on   16 total cores
 distrk:  each k-point on   16 cores,    1 groups
 distr:  one band on NCORES_PER_BAND=   4 cores,    4 groups


--------------------------------------------------------------------------------------------------------


 INCAR:
 POTCAR:   PAW_PBE O 08Apr2002                    
 POTCAR:   PAW_PBE Si 05Jan2001                   
 POTCAR:   PAW_PBE Al 04Jan2001                   
 POTCAR:   PAW_PBE Ag 06Sep2000                   
 POTCAR:   PAW_PBE O 08Apr2002                    
   VRHFIN =O: s2p4                                                              
   LEXCH  = PE                                                                  
   EATOM  =   432.3788 eV,   31.7789 Ry                                         
                                                                                
   TITEL  = PAW_PBE O 08Apr2002                                                 
   LULTRA =        F    use ultrasoft PP ?                                      
   IUNSCR =        0    unscreen: 0-lin 1-nonlin 2-no                           
   RPACOR =     .000    partial core radius                                     
   POMASS =   16.000; ZVAL   =    6.000    mass and valenz                      
   RCORE  =    1.520    outmost cutoff radius                                   
   RWIGS  =    1.550; RWIGS  =     .820    wigner-seitz radius (au A)           
   ENMAX  =  400.000; ENMIN  =  300.000 eV                                      
   ICORE  =        2    local potential                                         
   LCOR   =        T    correct aug charges                                     
   LPAW   =        T    paw PP                                                  
   EAUG   =  605.392                                                            
   DEXC   =     .000                                                            
   RMAX   =    2.264    core radius for proj-oper                               
   RAUG   =    1.300    factor for augmentation sphere                          
   RDEP   =    1.550    radius for radial grids                                 
   QCUT   =   -5.520; QGAM   =   11.041    optimization parameters              
                                                                                
   Description                                                                  
     l     E      TYP  RCUT    TYP  RCUT                                        
     0   .000     23  1.200                                                     
     0  -.700     23  1.200                                                     
     1   .000     23  1.520                                                     
     1   .600     23  1.520                                                     
     2   .000      7  1.500                                                     
  local pseudopotential read in
  atomic valenz-charges read in
  non local Contribution for L=           0  read in
    real space projection operators read in
  non local Contribution for L=           0  read in
    real space projection operators read in
  non local Contribution for L=           1  read in
    real space projection operators read in
  non local Contribution for L=           1  read in
    real space projection operators read in
    PAW grid and wavefunctions read in
 
   number of l-projection  operators is LMAX  =           4
   number of lm-projection operators is LMMAX =           8
 
 POTCAR:   PAW_PBE Si 05Jan2001                   
   VRHFIN =Si: s2p2                                                             
   LEXCH  = PE                                                                  
   EATOM  =   103.0669 eV,    7.5752 Ry                                         
                                                                                
   TITEL  = PAW_PBE Si 05Jan2001                                                
   LULTRA =        F    use ultrasoft PP ?                                      
   IUNSCR =        1    unscreen: 0-lin 1-nonlin 2-no                           
   RPACOR =    1.500    partial core radius                                     
   POMASS =   28.085; ZVAL   =    4.000    mass and valenz                      
   RCORE  =    1.900    outmost cutoff radius                                   
   RWIGS  =    2.480; RWIGS  =    1.312    wigner-seitz radius (au A)           
   ENMAX  =  245.345; ENMIN  =  184.009 eV                                      
   ICORE  =        2    local potential                                         
   LCOR   =        T    correct aug charges                                     
   LPAW   =        T    paw PP                                                  
   EAUG   =  322.069                                                            
   DEXC   =    -.007                                                            
   RMAX   =    2.944    core radius for proj-oper                               
   RAUG   =    1.300    factor for augmentation sphere                          
   RDEP   =    1.993    radius for radial grids                                 
   QCUT   =   -4.246; QGAM   =    8.493    optimization parameters              
                                                                                
   Description                                                                  
     l     E      TYP  RCUT    TYP  RCUT                                        
     0   .000     23  1.900                                                     
     0   .000     23  1.900                                                     
     1   .000     23  1.900                                                     
     1   .000     23  1.900                                                     
     2   .000      7  1.900                                                     
  local pseudopotential read in
  partial core-charges read in
  atomic valenz-charges read in
  non local Contribution for L=           0  read in
    real space projection operators read in
  non local Contribution for L=           0  read in
    real space projection operators read in
  non local Contribution for L=           1  read in
    real space projection operators read in
  non local Contribution for L=           1  read in
    real space projection operators read in
    PAW grid and wavefunctions read in
 
   number of l-projection  operators is LMAX  =           4
   number of lm-projection operators is LMMAX =           8
 
 POTCAR:   PAW_PBE Al 04Jan2001                   
   VRHFIN =Al: s2p1                                                             
   LEXCH  = PE                                                                  
   EATOM  =    53.5387 eV,    3.9350 Ry                                         
                                                                                
   TITEL  = PAW_PBE Al 04Jan2001                                                
   LULTRA =        F    use ultrasoft PP ?                                      
   IUNSCR =        1    unscreen: 0-lin 1-nonlin 2-no                           
   RPACOR =    1.500    partial core radius                                     
   POMASS =   26.982; ZVAL   =    3.000    mass and valenz                      
   RCORE  =    1.900    outmost cutoff radius                                   
   RWIGS  =    2.650; RWIGS  =    1.402    wigner-seitz radius (au A)           
   ENMAX  =  240.300; ENMIN  =  180.225 eV                                      
   ICORE  =        2    local potential                                         
   LCOR   =        T    correct aug charges                                     
   LPAW   =        T    paw PP                                                  
   EAUG   =  291.052                                                            
   DEXC   =    -.041                                                            
   RMAX   =    2.974    core radius for proj-oper                               
   RAUG   =    1.300    factor for augmentation sphere                          
   RDEP   =    1.966    radius for radial grids                                 
   QCUT   =   -4.203; QGAM   =    8.405    optimization parameters              
                                                                                
   Description                                                                  
     l     E      TYP  RCUT    TYP  RCUT                                        
     0   .000     23  1.900                                                     
     0   .000     23  1.900                                                     
     1   .000     23  1.900                                                     
     1  1.000     23  1.900                                                     
     2   .000      7  1.900                                                     
  local pseudopotential read in
  partial core-charges read in
  atomic valenz-charges read in
  non local Contribution for L=           0  read in
    real space projection operators read in
  non local Contribution for L=           0  read in
    real space projection operators read in
  non local Contribution for L=           1  read in
    real space projection operators read in
  non local Contribution for L=           1  read in
    real space projection operators read in
    PAW grid and wavefunctions read in
 
   number of l-projection  operators is LMAX  =           4
   number of lm-projection operators is LMMAX =           8
 
 POTCAR:   PAW_PBE Ag 06Sep2000                   
   VRHFIN =Ag : s1 d10                                                          
   LEXCH  = PE                                                                  
   EATOM  =  1037.4134 eV,   76.2477 Ry                                         
                                                                                
   TITEL  = PAW_PBE Ag 06Sep2000                                                
   LULTRA =        F    use ultrasoft PP ?                                      
   IUNSCR =        1    unscreen: 0-lin 1-nonlin 2-no                           
   RPACOR =    2.000    partial core radius                                     
   POMASS =  107.868; ZVAL   =   11.000    mass and valenz                      
   RCORE  =    2.400    outmost cutoff radius                                   
   RWIGS  =    2.840; RWIGS  =    1.503    wigner-seitz radius (au A)           
   ENMAX  =  249.846; ENMIN  =  187.385 eV                                      
   RCLOC  =    1.962    cutoff for local pot                                    
   LCOR   =        T    correct aug charges                                     
   LPAW   =        T    paw PP                                                  
   EAUG   =  412.496                                                            
   DEXC   =    -.047                                                            
   RMAX   =    2.917    core radius for proj-oper                               
   RAUG   =    1.300    factor for augmentation sphere                          
   RDEP   =    2.416    radius for radial grids                                 
   QCUT   =   -4.285; QGAM   =    8.570    optimization parameters              
                                                                                
   Description                                                                  
     l     E      TYP  RCUT    TYP  RCUT                                        
     2   .000     23  2.400                                                     
     2   .000     23  2.400                                                     
     0   .000     23  2.400                                                     
     0   .000     23  2.400                                                     
     1  -.200     23  2.400                                                     
     1  1.500     23  2.400                                                     
     3   .000      7   .000                                                     
  local pseudopotential read in
  partial core-charges read in
  atomic valenz-charges read in
  non local Contribution for L=           2  read in
    real space projection operators read in
  non local Contribution for L=           2  read in
    real space projection operators read in
  non local Contribution for L=           0  read in
    real space projection operators read in
  non local Contribution for L=           0  read in
    real space projection operators read in
  non local Contribution for L=           1  read in
    real space projection operators read in
  non local Contribution for L=           1  read in
    real space projection operators read in
    PAW grid and wavefunctions read in
 
   number of l-projection  operators is LMAX  =           6
   number of lm-projection operators is LMMAX =          18
 
 Optimization of the real space projectors (new method)

 maximal supplied QI-value         = 24.76
 optimisation between [QCUT,QGAM] = [ 10.15, 20.30] = [ 28.85,115.39] Ry 
 Optimized for a Real-space Cutoff    1.51 Angstroem

   l    n(q)    QCUT    max X(q) W(low)/X(q) W(high)/X(q)  e(spline) 
   0      9    10.150     4.192    0.32E-04    0.13E-04    0.13E-06
   0      9    10.150     8.473    0.18E-03    0.20E-03    0.43E-06
   1      9    10.150     2.474    0.32E-04    0.33E-04    0.64E-07
   1      9    10.150     3.912    0.13E-03    0.16E-03    0.33E-06
 Optimization of the real space projectors (new method)

 maximal supplied QI-value         = 19.84
 optimisation between [QCUT,QGAM] = [ 10.12, 20.44] = [ 28.68,116.96] Ry 
 Optimized for a Real-space Cutoff    1.38 Angstroem

   l    n(q)    QCUT    max X(q) W(low)/X(q) W(high)/X(q)  e(spline) 
   0      8    10.119     8.708    0.16E-04    0.67E-05    0.60E-08
   0      8    10.119   106.241    0.56E-04    0.11E-03    0.54E-07
   1      8    10.119     5.901    0.16E-04    0.16E-05    0.22E-07
   1      8    10.119    73.241    0.22E-03    0.17E-03    0.18E-06
 Optimization of the real space projectors (new method)

 maximal supplied QI-value         = 19.84
 optimisation between [QCUT,QGAM] = [ 10.12, 20.44] = [ 28.68,116.96] Ry 
 Optimized for a Real-space Cutoff    1.26 Angstroem

   l    n(q)    QCUT    max X(q) W(low)/X(q) W(high)/X(q)  e(spline) 
   0      8    10.119    13.410    0.28E-04    0.17E-04    0.51E-08
   0      8    10.119   140.052    0.10E-03    0.16E-03    0.42E-07
   1      7    10.119     9.624    0.38E-04    0.42E-05    0.15E-07
   1      7    10.119    53.353    0.23E-03    0.17E-03    0.13E-06
 Optimization of the real space projectors (new method)

 maximal supplied QI-value         = 15.68
 optimisation between [QCUT,QGAM] = [ 10.20, 20.39] = [ 29.11,116.42] Ry 
 Optimized for a Real-space Cutoff    1.51 Angstroem

   l    n(q)    QCUT    max X(q) W(low)/X(q) W(high)/X(q)  e(spline) 
   2      8    10.195     3.831    0.11E-04    0.20E-04    0.48E-07
   2      8    10.195    20.184    0.23E-03    0.42E-03    0.20E-06
   0      9    10.195    16.770    0.13E-04    0.90E-05    0.63E-08
   0      9    10.195    80.708    0.19E-03    0.15E-03    0.44E-07
   1      9    10.195     6.696    0.12E-04    0.45E-04    0.30E-07
   1      9    10.195     8.973    0.12E-03    0.15E-03    0.13E-06
 PAW_PBE O 08Apr2002                    :
 energy of atom  1       EATOM= -432.3788
 kinetic energy error for atom=    0.1156 (will be added to EATOM!!)
 PAW_PBE Si 05Jan2001                   :
 energy of atom  2       EATOM= -103.0669
 kinetic energy error for atom=    0.0012 (will be added to EATOM!!)
 PAW_PBE Al 04Jan2001                   :
 energy of atom  3       EATOM=  -53.5387
 kinetic energy error for atom=    0.0005 (will be added to EATOM!!)
 PAW_PBE Ag 06Sep2000                   :
 energy of atom  4       EATOM=-1037.4134
 kinetic energy error for atom=    0.0091 (will be added to EATOM!!)
 
 
 POSCAR: O  C                                    
  positions in direct lattice
  velocities in cartesian coordinates
 exchange correlation table for  LEXCH =        8
   RHO(1)=    0.500       N(1)  =     2000
   RHO(2)=  100.500       N(2)  =     4000

 VTST: version 3.2, (02/03/18)

 CHAIN: initializing optimizer
 
 OPT: Using VASP Dynamics algorithm
 CHAIN: Read ICHAIN            0
 
 POSCAR: O  C                                    
  positions in direct lattice
  velocities in cartesian coordinates
 


--------------------------------------------------------------------------------------------------------


 ion  position               nearest neighbor table
   1  0.896  0.095  0.120-  74 1.63  81 1.63
   2  0.101  0.887  0.880-  75 1.62  80 1.63
   3  0.891  0.792  0.130-  84 1.62  76 1.64
   4  0.093  0.194  0.867-  77 1.63  83 1.63
   5  0.193  0.101  0.117-  78 1.63  82 1.63
   6  0.799  0.901  0.883-  79 1.60 107 1.72
   7  0.552  0.424  0.458-  85 1.62  91 1.63
   8  0.761  0.232  0.220-  90 1.59 108 1.73
   9  0.564  0.140  0.471-  95 1.64  86 1.64
  10  0.764  0.536  0.204-  94 1.63  87 1.63
  11  0.863  0.424  0.461-  93 1.62  88 1.63
  12  0.462  0.234  0.184-  89 1.63  92 1.64
  13  0.229  0.772  0.777- 103 1.61  96 1.64
  14  0.423  0.568  0.525- 102 1.66  97 1.66 111 2.56
  15  0.231  0.450  0.775- 106 1.62  98 1.62
  16  0.427  0.849  0.532-  99 1.62 109 1.79 111 2.28
  17  0.531  0.755  0.806- 100 1.63 105 1.64
  18  0.121  0.557  0.534- 104 1.65 101 1.68 111 2.45
  19  0.974  0.314  0.161-  74 1.61  90 1.63
  20  0.019  0.667  0.842- 103 1.62  75 1.62
  21  0.675  0.671  0.175-  94 1.61  76 1.63
  22  0.311  0.315  0.819- 106 1.62  77 1.63
  23  0.316  0.013  0.178-  78 1.61  92 1.63
  24  0.661  0.978  0.828- 105 1.62  79 1.63
  25  0.321  0.982  0.839-  80 1.61  96 1.63
  26  0.675  0.003  0.163-  81 1.60 108 1.74 110 2.54
  27  0.671  0.672  0.813- 100 1.63 107 1.78 112 2.23
  28  0.329  0.321  0.159-  82 1.62  89 1.62
  29  0.016  0.334  0.833-  98 1.61  83 1.62
  30  0.984  0.668  0.173-  84 1.62  87 1.62
  31  0.645  0.640  0.503- 102 1.61  85 1.62
  32  0.340  0.991  0.476-  86 1.59 109 1.71
  33  0.992  0.335  0.499- 104 1.60  88 1.63
  34  0.334  0.348  0.482-  97 1.61  91 1.63
  35  0.985  0.642  0.504- 101 1.62  93 1.62
  36  0.647  0.006  0.516-  99 1.61  95 1.64
  37  0.115  0.241  0.129-  82 1.61  74 1.62
  38  0.882  0.746  0.854-  75 1.64 107 1.78 112 2.27
  39  0.758  0.876  0.112-  81 1.60  76 1.61
  40  0.226  0.106  0.870-  77 1.61  80 1.62
  41  0.109  0.880  0.129-  78 1.61  84 1.61
  42  0.874  0.120  0.859-  83 1.62  79 1.62
  43  0.772  0.554  0.470-  85 1.61  93 1.62
  44  0.533  0.085  0.176-  92 1.62 108 1.79 110 2.31
  45  0.412  0.207  0.468-  91 1.60  86 1.64
  46  0.901  0.452  0.198-  87 1.61  90 1.63
  47  0.781  0.205  0.453-  88 1.60  95 1.63
  48  0.544  0.454  0.195-  89 1.61  94 1.62
  49  0.445  0.891  0.808- 105 1.62  96 1.64
  50  0.208  0.427  0.540-  97 1.61 104 1.62
  51  0.118  0.552  0.802-  98 1.61 103 1.62
  52  0.578  0.786  0.521- 102 1.61  99 1.64
  53  0.450  0.533  0.801- 100 1.62 106 1.62
  54  0.200  0.774  0.544- 101 1.58 109 1.74 111 2.77
  55  0.994  0.255  0.995-  83 1.62  74 1.63
  56  0.986  0.728  0.003-  75 1.62  84 1.63
  57  0.730  0.710  0.002-  76 1.60 107 1.72
  58  0.254  0.263  0.992-  77 1.63  82 1.63
  59  0.265  0.998  0.004-  80 1.63  78 1.64
  60  0.659  0.584  0.335-  85 1.61  94 1.63
  61  0.629  0.047  0.342-  95 1.60 108 1.72
  62  0.437  0.105  0.326-  92 1.61  86 1.63
  63  0.915  0.584  0.336-  93 1.62  87 1.63
  64  0.937  0.342  0.331-  88 1.62  90 1.64
  65  0.404  0.322  0.323-  91 1.62  89 1.63
  66  0.355  0.946  0.668-  96 1.59 109 1.74
  67  0.350  0.408  0.655-  97 1.62 106 1.64
  68  0.058  0.404  0.666- 104 1.61  98 1.63
  69  0.573  0.894  0.668- 105 1.61  99 1.62
  70  0.568  0.658  0.661- 102 1.61 100 1.62
  71  0.052  0.640  0.671- 103 1.63 101 1.63
  72  0.730  0.011  0.995-  79 1.66  81 1.67 110 2.50
  73  0.792  0.511  0.662- 112 1.96
  74  0.994  0.226  0.102-  19 1.61  37 1.62  55 1.63   1 1.63  90 3.10  82 3.10  81 3.12  83 3.14

  75  0.999  0.759  0.896-  56 1.62  20 1.62   2 1.62  38 1.64 103 3.06  84 3.13 107 3.17
  76  0.763  0.761  0.102-  57 1.60  39 1.61  21 1.63   3 1.64  94 3.00 107 3.07  84 3.09
  77  0.221  0.219  0.888-  40 1.61  58 1.63  22 1.63   4 1.63 106 3.07  82 3.11  83 3.13
  78  0.220  0.999  0.107-  41 1.61  23 1.61   5 1.63  59 1.64  92 3.04  80 3.08
  79  0.768  0.999  0.890-   6 1.60  42 1.62  24 1.63  72 1.66 105 3.07  83 3.09  81 3.10 107 3.23

  80  0.228  0.993  0.898-  25 1.61  40 1.62   2 1.63  59 1.63  96 3.08  78 3.08
  81  0.767  0.996  0.100-  26 1.60  39 1.60   1 1.63  72 1.67  79 3.10  74 3.12 108 3.16 110 3.17

  82  0.223  0.231  0.099-  37 1.61  28 1.62   5 1.63  58 1.63  89 3.05  74 3.10  77 3.11
  83  0.995  0.225  0.890-  42 1.62  55 1.62  29 1.62   4 1.63  98 3.06  79 3.09  77 3.13  74 3.14

  84  0.992  0.767  0.108-  41 1.61   3 1.62  30 1.62  56 1.63  87 3.03  76 3.09  75 3.13
  85  0.657  0.550  0.440-  43 1.61  60 1.61   7 1.62  31 1.62 102 3.06  93 3.11  91 3.12  94 3.14

  86  0.437  0.107  0.436-  32 1.59  62 1.63  45 1.64   9 1.64  95 3.02  91 3.04 109 3.07
  87  0.890  0.559  0.228-  46 1.61  30 1.62  63 1.63  10 1.63  84 3.03  90 3.11  94 3.14  93 3.15

  88  0.891  0.325  0.434-  47 1.60  64 1.62  11 1.63  33 1.63 104 3.03  90 3.06  93 3.12
  89  0.435  0.332  0.216-  48 1.61  28 1.62  65 1.63  12 1.63  82 3.05  92 3.06  94 3.12
  90  0.889  0.331  0.227-   8 1.59  19 1.63  46 1.63  64 1.64  88 3.06  74 3.10  87 3.11 108 3.23

  91  0.426  0.324  0.431-  45 1.60  65 1.62   7 1.63  34 1.63  86 3.04  97 3.05  85 3.12
  92  0.438  0.109  0.217-  62 1.61  44 1.62  23 1.63  12 1.64  78 3.04  89 3.06 108 3.07
  93  0.884  0.550  0.441-  43 1.62  35 1.62  11 1.62  63 1.62 101 3.05  85 3.11  88 3.12  87 3.15

  94  0.662  0.561  0.227-  21 1.61  48 1.62  60 1.63  10 1.63  76 3.00  89 3.12  87 3.14  85 3.14

  95  0.654  0.099  0.442-  61 1.60  47 1.63  36 1.64   9 1.64  86 3.02  99 3.04 108 3.11
  96  0.337  0.899  0.769-  66 1.59  25 1.63  13 1.64  49 1.64  80 3.08 105 3.08 109 3.13
  97  0.329  0.435  0.552-  34 1.61  50 1.61  67 1.62  14 1.66  91 3.05 102 3.11 106 3.11
  98  0.106  0.435  0.769-  29 1.61  51 1.61  15 1.62  68 1.63  83 3.06 103 3.08 104 3.09
  99  0.556  0.887  0.559-  36 1.61  16 1.62  69 1.62  52 1.64 102 3.04  95 3.04 109 3.17 111 3.35

 100  0.553  0.655  0.770-  70 1.62  53 1.62  17 1.63  27 1.63 106 3.07 105 3.08 107 3.15
 101  0.090  0.657  0.564-  54 1.58  35 1.62  71 1.63  18 1.68  93 3.05 103 3.08 104 3.14 111 3.25

 102  0.554  0.664  0.553-  31 1.61  52 1.61  70 1.61  14 1.66  99 3.04  85 3.06  97 3.11
 103  0.107  0.660  0.772-  13 1.61  51 1.62  20 1.62  71 1.63  75 3.06 101 3.08  98 3.08
 104  0.092  0.428  0.560-  33 1.60  68 1.61  50 1.62  18 1.65  88 3.03  98 3.09 101 3.14
 105  0.552  0.880  0.776-  69 1.61  49 1.62  24 1.62  17 1.64  79 3.07 100 3.08  96 3.08
 106  0.334  0.425  0.763-  22 1.62  15 1.62  53 1.62  67 1.64  77 3.07 100 3.07  97 3.11
 107  0.770  0.764  0.894-  57 1.72   6 1.72  27 1.78  38 1.78 112 3.04  76 3.07 100 3.15  75 3.17
                            79 3.23
 108  0.653  0.094  0.232-  61 1.72   8 1.73  26 1.74  44 1.79  92 3.07 110 3.10  95 3.11  81 3.16
                            90 3.23
 109  0.329  0.897  0.557-  32 1.71  54 1.74  66 1.74  16 1.79  86 3.07  96 3.13  99 3.17 111 3.23

 110  0.561  0.025  0.037-  44 2.31  72 2.50  26 2.54 108 3.10  81 3.17
 111  0.316  0.669  0.480-  16 2.28  18 2.45  14 2.56  54 2.77 109 3.23 101 3.25  99 3.35
 112  0.781  0.614  0.748-  73 1.96  27 2.23  38 2.27 107 3.04
 
  LATTYP: Found a hexagonal cell.
 ALAT       =    13.6750001907
 C/A-ratio  =     1.0798537472
  
  Lattice vectors:
  
 A1 = (  13.6750001907,   0.0000000000,   0.0000000000)
 A2 = (  -6.8375000954,  11.8428975619,   0.0000000000)
 A3 = (   0.0000000000,   0.0000000000,  14.7670001984)


Analysis of symmetry for initial positions (statically):
=====================================================================
 Subroutine PRICEL returns:
 Original cell was already a primitive cell.
 

 Routine SETGRP: Setting up the symmetry group for a 
 hexagonal supercell.


 Subroutine GETGRP returns: Found  1 space group operations
 (whereof  1 operations were pure point group operations)
 out of a pool of 24 trial point group operations.


The static configuration has the point symmetry C_1 .


Analysis of symmetry for dynamics (positions and initial velocities):
=====================================================================
 Subroutine PRICEL returns:
 Original cell was already a primitive cell.
 

 Routine SETGRP: Setting up the symmetry group for a 
 hexagonal supercell.


 Subroutine GETGRP returns: Found  1 space group operations
 (whereof  1 operations were pure point group operations)
 out of a pool of 24 trial point group operations.


The dynamic configuration has the point symmetry C_1 .


Analysis of structural, dynamic, and magnetic symmetry:
=====================================================================
 Subroutine PRICEL returns:
 Original cell was already a primitive cell.
 

 Routine SETGRP: Setting up the symmetry group for a 
 hexagonal supercell.


 Subroutine GETGRP returns: Found  1 space group operations
 (whereof  1 operations were pure point group operations)
 out of a pool of 24 trial point group operations.


The magnetic configuration has the point symmetry C_1 .


 Subroutine INISYM returns: Found  1 space group operations
 (whereof  1 operations are pure point group operations),
 and found     1 'primitive' translations

 
 
 KPOINTS: Gamma points only                       
  k-points in reciprocal lattice
Space group operators:
 irot       det(A)        alpha          n_x          n_y          n_z        tau_x        tau_y        tau_z
    1     1.000000     0.000000     1.000000     0.000000     0.000000     0.000000     0.000000     0.000000

 ----------------------------------------------------------------------------- 
|                                                                             |
|           W    W    AA    RRRRR   N    N  II  N    N   GGGG   !!!           |
|           W    W   A  A   R    R  NN   N  II  NN   N  G    G  !!!           |
|           W    W  A    A  R    R  N N  N  II  N N  N  G       !!!           |
|           W WW W  AAAAAA  RRRRR   N  N N  II  N  N N  G  GGG   !            |
|           WW  WW  A    A  R   R   N   NN  II  N   NN  G    G                |
|           W    W  A    A  R    R  N    N  II  N    N   GGGG   !!!           |
|                                                                             |
|      Your generating k-point grid is not commensurate to the symmetry       |
|      of the lattice.  This can cause   slow convergence with respect        |
|      to k-points for HF type calculations                                   |
|      suggested SOLUTIONS:                                                   |
|       ) if not already the case, use automatic k-point generation           |
|       ) shift your grid to Gamma (G) (e.g. required for hex or fcc lattice) |
|                                                                             |
 ----------------------------------------------------------------------------- 

 
 Subroutine IBZKPT_HF returns following result:
 ==============================================
 
 Found      1 k-points in 1st BZ
 the following      1 k-points will be used (e.g. in the exchange kernel)
 Following reciprocal coordinates:   # in IRBZ
  0.000000  0.000000  0.000000    1.00000000   1 t-inv F


--------------------------------------------------------------------------------------------------------




 Dimension of arrays:
   k-points           NKPTS =      1   k-points in BZ     NKDIM =      1   number of bands    NBANDS=    424
   number of dos      NEDOS =    301   number of ions     NIONS =    112
   non local maximal  LDIM  =      6   non local SUM 2l+1 LMDIM =     18
   total plane-waves  NPLWV = 777600
   max r-space proj   IRMAX =   4725   max aug-charges    IRDMAX= 128081
   dimension x,y,z NGX =    90 NGY =   90 NGZ =   96
   dimension x,y,z NGXF=   180 NGYF=  180 NGZF=  192
   support grid    NGXF=   360 NGYF=  360 NGZF=  384
   ions per type =              73  33   3   3
   NGX,Y,Z   is equivalent  to a cutoff of  10.94, 10.94, 10.81 a.u.
   NGXF,Y,Z  is equivalent  to a cutoff of  21.88, 21.88, 21.62 a.u.

 SYSTEM =  SiO2                                    
 POSCAR =  O  C                                    

 Startparameter for this run:
   NWRITE =      2    write-flag & timer
   PREC   = acc       normal or accurate (medium, high low for compatibility)
   ISTART =      0    job   : 0-new  1-cont  2-samecut
   ICHARG =      2    charge: 1-file 2-atom 10-const
   ISPIN  =      2    spin polarized calculation?
   LNONCOLLINEAR =      F non collinear calculations
   LSORBIT =      F    spin-orbit coupling
   INIWAV =      1    electr: 0-lowe 1-rand  2-diag
   LASPH  =      F    aspherical Exc in radial PAW
   METAGGA=      F    non-selfconsistent MetaGGA calc.

 Electronic Relaxation 1
   ENCUT  =  400.0 eV  29.40 Ry    5.42 a.u.  22.30 22.30 24.08*2*pi/ulx,y,z
   ENINI  =  400.0     initial cutoff
   ENAUG  =  605.4 eV  augmentation charge cutoff
   NELM   =    100;   NELMIN=  2; NELMDL= -5     # of ELM steps 
   EDIFF  = 0.1E-04   stopping-criterion for ELM
   LREAL  =      T    real-space projection
   NLSPLINE    = F    spline interpolate recip. space projectors
   LCOMPAT=      F    compatible to vasp.4.4
   GGA_COMPAT  = T    GGA compatible to vasp.4.4-vasp.4.6
   LMAXPAW     = -100 max onsite density
   LMAXMIX     =    2 max onsite mixed and CHGCAR
   VOSKOWN=      0    Vosko Wilk Nusair interpolation
   ROPT   =   -0.00025  -0.00025  -0.00025  -0.00025
 Ionic relaxation
   EDIFFG = 0.1E-03   stopping-criterion for IOM
   NSW    =      0    number of steps for IOM
   NBLOCK =      1;   KBLOCK =      1    inner block; outer block 
   IBRION =     -1    ionic relax: 0-MD 1-quasi-New 2-CG
   NFREE  =      0    steps in history (QN), initial steepest desc. (CG)
   ISIF   =      0    stress and relaxation
   IWAVPR =     10    prediction:  0-non 1-charg 2-wave 3-comb
   ISYM   =      3    0-nonsym 1-usesym 2-fastsym
   LCORR  =      T    Harris-Foulkes like correction to forces

   POTIM  = 0.5000    time-step for ionic-motion
   TEIN   =    0.0    initial temperature
   TEBEG  =    0.0;   TEEND  =   0.0 temperature during run
   SMASS  =  -3.00    Nose mass-parameter (am)
   estimated Nose-frequenzy (Omega)   =  0.10E-29 period in steps =****** mass=  -0.427E-26a.u.
   SCALEE = 1.0000    scale energy and forces
   NPACO  =    256;   APACO  = 16.0  distance and # of slots for P.C.
   PSTRESS=    0.0 pullay stress

  Mass of Ions in am
   POMASS =  16.00 28.09 26.98107.87
  Ionic Valenz
   ZVAL   =   6.00  4.00  3.00 11.00
  Atomic Wigner-Seitz radii
   RWIGS  =  -1.00 -1.00 -1.00 -1.00
  virtual crystal weights 
   VCA    =   1.00  1.00  1.00  1.00
   NELECT =     612.0000    total number of electrons
   NUPDOWN=      -1.0000    fix difference up-down

 DOS related values:
   EMIN   =  10.00;   EMAX   =-10.00  energy-range for DOS
   EFERMI =   0.00
   ISMEAR =     0;   SIGMA  =   0.05  broadening in eV -4-tet -1-fermi 0-gaus

 Electronic relaxation 2 (details)
   IALGO  =     38    algorithm
   LDIAG  =      T    sub-space diagonalisation (order eigenvalues)
   LSUBROT=      F    optimize rotation matrix (better conditioning)
   TURBO    =      0    0=normal 1=particle mesh
   IRESTART =      0    0=no restart 2=restart with 2 vectors
   NREBOOT  =      0    no. of reboots
   NMIN     =      0    reboot dimension
   EREF     =   0.00    reference energy to select bands
   IMIX   =      1    mixing-type and parameters
     AMIX     =   0.40;   BMIX     =  1.00
     AMIX_MAG =   1.60;   BMIX_MAG =  1.00
     AMIN     =   0.10
     WC   =   100.;   INIMIX=   1;  MIXPRE=   1;  MAXMIX= -45

 Intra band minimization:
   WEIMIN = 0.0000     energy-eigenvalue tresh-hold
   EBREAK =  0.59E-08  absolut break condition
   DEPER  =   0.30     relativ break condition  

   TIME   =   0.40     timestep for ELM

  volume/ion in A,a.u.               =      21.35       144.10
  Fermi-wavevector in a.u.,A,eV,Ry     =   1.039360  1.964106 14.697962  1.080270
  Thomas-Fermi vector in A             =   2.173887
 
 Write flags
   LWAVE        =      F    write WAVECAR
   LDOWNSAMPLE  =      F    k-point downsampling of WAVECAR
   LCHARG       =      F    write CHGCAR
   LVTOT        =      F    write LOCPOT, total local potential
   LVHAR        =      F    write LOCPOT, Hartree potential only
   LELF         =      F    write electronic localiz. function (ELF)
   LORBIT       =     11    0 simple, 1 ext, 2 COOP (PROOUT), +10 PAW based schemes


 Dipole corrections
   LMONO  =      F    monopole corrections only (constant potential shift)
   LDIPOL =      F    correct potential (dipole corrections)
   IDIPOL =      0    1-x, 2-y, 3-z, 4-all directions 
   EPSILON=  1.0000000 bulk dielectric constant

 Exchange correlation treatment:
   GGA     =    PE    GGA type
   LEXCH   =     8    internal setting for exchange type
   VOSKOWN=      0    Vosko Wilk Nusair interpolation
   EXXOEP  =     0    0=HF, 1=EXX-LHF (local Hartree Fock) 2=EXX OEP
   LHFCALC =     T    Hartree Fock is set to
   LSYMGRAD=     F    symmetrize gradient (conserves proper symmetry)
   PRECFOCK=normal    Normal, Fast or Accurate (Low or Medium for compatibility)
   LRHFCALC=     F    long range Hartree Fock
   LRSCOR  =     F    long range correlation only (use DFT for short range part)
   LTHOMAS =     F    Thomas Fermi screening in HF
   LMODELHF=     F    short range full HF, long range fraction AEXX
   ENCUT4O =  -1.0   cutoff for four orbital integrals eV
   LMAXFOCK=     4    L truncation for augmentation on plane wave grid
   LMAXFOCKAE=  -1    L truncation for all-electron charge restoration on plane wave grid
   NMAXFOCKAE=   1    number of basis functions for all-electron charge restoration
   LFOCKAEDFT=     F  apply the AE augmentation even for DFT
   NKREDX  =     1    reduce k-point grid by
   NKREDY  =     1    reduce k-point grid by
   NKREDZ  =     1    reduce k-point grid by
   SHIFTRED=     F    shift reduced grid of Gamma
   HFKIDENT=     F    idential grid for each k-point
   ODDONLY =     F    use only odd q-grid points
   EVENONLY=     F    use only even q-grid points
   HFALPHA =   -1.0000 decay constant for conv. correction
   MCALPHA =    0.0000 extent of test-charge in conv. correction in multipole expansion
   AEXX    =    0.2500 exact exchange contribution
   HFSCREEN=    0.2000 screening length (either q_TF or 0.3 A-1)
   HFSCREENC=   0.2000 screening length for correlation (either q_TF or 0.3 A-1)
   HFRCUT  =    0.0000 spherical cutoff for potential kernel
   ALDAX   =    0.7500 LDA exchange part
   AGGAX   =    0.7500 GGA exchange part
   ALDAC   =    1.0000 LDA correlation
   AGGAC   =    1.0000 GGA correlation
   ENCUTFOCK=  -1.0 apply spherical cutoff to Coloumb kernel
   NBANDSGWLOW=     1    first orbital included in HF term
   NBLOCK_FOCK=    64    blocking factor in FOCK_ACC
 Linear response parameters
   LEPSILON=     F    determine dielectric tensor
   LRPA    =     F    only Hartree local field effects (RPA)
   LNABLA  =     F    use nabla operator in PAW spheres
   LVEL    =     F    velocity operator in full k-point grid
   LINTERFAST=   F  fast interpolation
   KINTER  =     0    interpolate to denser k-point grid
   CSHIFT  =0.1000    complex shift for real part using Kramers Kronig
   OMEGAMAX=  -1.0    maximum frequency
   DEG_THRESHOLD= 0.2000000E-02 threshold for treating states as degnerate
   RTIME   =   -0.100 relaxation time in fs
  (WPLASMAI=    0.000 imaginary part of plasma frequency in eV, 0.658/RTIME)
   DFIELD  = 0.0000000 0.0000000 0.0000000 field for delta impulse in time
 
 Orbital magnetization related:
   ORBITALMAG=     F  switch on orbital magnetization
   LCHIMAG   =     F  perturbation theory with respect to B field
   DQ        =  0.001000  dq finite difference perturbation B field
   LLRAUG    =     F  two centre corrections for induced B field



--------------------------------------------------------------------------------------------------------


 Static calculation
 charge density and potential will be updated during run
 spin polarized calculation
 Variant of blocked Davidson
 Davidson routine will perform the subspace rotation
 perform sub-space diagonalisation
    after iterative eigenvector-optimisation
 Kerker-like  mixing scheme
 using additional bands          118
 real space projection scheme for non local part
 use partial core corrections
 calculate Harris-corrections to forces 
   (improved forces if not selfconsistent)
 use gradient corrections 
 use of overlap-Matrix (Vanderbilt PP)
 Gauss-broadening in eV      SIGMA  =   0.05


--------------------------------------------------------------------------------------------------------


  energy-cutoff  :      400.00
  volume of cell :     2391.54
      direct lattice vectors                 reciprocal lattice vectors
    13.675000191  0.000000000  0.000000000     0.073126142  0.042219398  0.000000000
    -6.837500095 11.842897562  0.000000000     0.000000000  0.084438795  0.000000000
     0.000000000  0.000000000 14.767000198     0.000000000  0.000000000  0.067718561

  length of vectors
    13.675000191 13.675000191 14.767000198     0.084438795  0.084438795  0.067718561


 
 k-points in units of 2pi/SCALE and weight: Gamma points only                       
   0.00000000  0.00000000  0.00000000       1.000
 
 k-points in reciprocal lattice and weights: Gamma points only                       
   0.00000000  0.00000000  0.00000000       1.000
 
 position of ions in fractional coordinates (direct lattice) 
   0.89647902  0.09490056  0.11973645
   0.10141554  0.88679518  0.88037932
   0.89069357  0.79243086  0.12998576
   0.09320584  0.19406205  0.86721984
   0.19285015  0.10139164  0.11704449
   0.79905412  0.90143494  0.88270370
   0.55202437  0.42418208  0.45830280
   0.76106978  0.23202843  0.21968222
   0.56382019  0.13972080  0.47116105
   0.76379836  0.53635020  0.20444837
   0.86291899  0.42393582  0.46087583
   0.46176435  0.23365393  0.18407146
   0.22888278  0.77183612  0.77725213
   0.42296568  0.56791509  0.52531704
   0.23094506  0.44958324  0.77534587
   0.42677249  0.84906261  0.53157228
   0.53106709  0.75458700  0.80560874
   0.12067739  0.55710044  0.53384279
   0.97426583  0.31353368  0.16109069
   0.01915430  0.66744498  0.84199816
   0.67524425  0.67122327  0.17548186
   0.31103515  0.31467079  0.81935332
   0.31578349  0.01264091  0.17797578
   0.66130224  0.97786945  0.82800284
   0.32119572  0.98201002  0.83919261
   0.67508466  0.00268499  0.16298682
   0.67084975  0.67154032  0.81276837
   0.32930914  0.32105203  0.15870809
   0.01578839  0.33440292  0.83272029
   0.98448280  0.66790010  0.17294650
   0.64499337  0.63970273  0.50337490
   0.34011063  0.99126892  0.47607470
   0.99216210  0.33486717  0.49902517
   0.33446123  0.34815916  0.48208714
   0.98456620  0.64177501  0.50447614
   0.64745643  0.00609489  0.51602767
   0.11536297  0.24147127  0.12926434
   0.88220217  0.74592537  0.85428455
   0.75755166  0.87581697  0.11154619
   0.22649569  0.10609562  0.86985201
   0.10932127  0.88032909  0.12859269
   0.87398597  0.12008821  0.85941655
   0.77195848  0.55373546  0.46997413
   0.53331452  0.08478100  0.17564670
   0.41208538  0.20720637  0.46774924
   0.90081383  0.45152582  0.19778816
   0.78141468  0.20470189  0.45315288
   0.54390899  0.45368286  0.19470263
   0.44529045  0.89098437  0.80777856
   0.20770820  0.42689951  0.53976036
   0.11763992  0.55234094  0.80232639
   0.57760777  0.78633676  0.52071155
   0.44955020  0.53283095  0.80060473
   0.20046504  0.77350032  0.54430130
   0.99438046  0.25522703  0.99546360
   0.98558428  0.72761546  0.00307251
   0.73035661  0.70993387  0.00162616
   0.25445991  0.26277879  0.99213592
   0.26460968  0.99849356  0.00414061
   0.65934827  0.58433265  0.33491019
   0.62881031  0.04691421  0.34237955
   0.43707942  0.10517757  0.32552147
   0.91512390  0.58448830  0.33589521
   0.93712571  0.34208940  0.33076712
   0.40411814  0.32188835  0.32322371
   0.35498482  0.94630968  0.66782749
   0.34963970  0.40777965  0.65507524
   0.05830807  0.40403244  0.66609221
   0.57345430  0.89437959  0.66796129
   0.56776541  0.65825305  0.66105026
   0.05238595  0.63956337  0.67068482
   0.73032815  0.01096783  0.99485124
   0.79249055  0.51110586  0.66151980
   0.99360903  0.22566961  0.10214817
   0.99865080  0.75868504  0.89637623
   0.76254572  0.76102265  0.10201708
   0.22067227  0.21932447  0.88824230
   0.22030411  0.99920966  0.10688364
   0.76835786  0.99945691  0.89032184
   0.22783143  0.99273844  0.89838699
   0.76670913  0.99648247  0.10003541
   0.22309561  0.23097445  0.09883349
   0.99468195  0.22456006  0.88979910
   0.99152854  0.76680554  0.10825122
   0.65684605  0.54953002  0.43965038
   0.43721961  0.10732858  0.43583098
   0.88997593  0.55876753  0.22814798
   0.89089312  0.32479881  0.43400579
   0.43534745  0.33194960  0.21613680
   0.88892778  0.33110443  0.22719408
   0.42609913  0.32391102  0.43124104
   0.43765272  0.10910723  0.21683345
   0.88391881  0.54952742  0.44121866
   0.66159520  0.56107823  0.22713491
   0.65378211  0.09870809  0.44247336
   0.33747103  0.89939308  0.76870189
   0.32898815  0.43527780  0.55213291
   0.10580411  0.43456434  0.76920958
   0.55592347  0.88679494  0.55882927
   0.55341828  0.65475493  0.77018137
   0.09020986  0.65688567  0.56428101
   0.55449115  0.66391647  0.55288652
   0.10659850  0.66000710  0.77210004
   0.09200113  0.42832398  0.56040517
   0.55223618  0.87951219  0.77569549
   0.33446222  0.42538669  0.76267013
   0.76954533  0.76421484  0.89448426
   0.65341633  0.09366328  0.23186113
   0.32928028  0.89678130  0.55709263
   0.56102745  0.02506102  0.03684122
   0.31575439  0.66927971  0.48029976
   0.78128462  0.61433113  0.74780917
 
 position of ions in cartesian coordinates  (Angst):
  11.61046820  1.12389762  1.76814812
  -4.67660461 10.50222442 13.00056165
   6.76198867  9.38467752  1.91949977
  -0.05230936  2.29825698 12.80623549
   1.94396043  1.20077086  1.72839606
   4.76350377 10.67560160 13.03488567
   4.64858836  5.02354495  6.76775760
   8.82113496  2.74788893  3.24404735
   6.75490019  1.65469909  6.95763530
   6.77764825  6.35194042  3.01908913
   8.90175610  5.02062849  6.80575344
   4.71701877  2.76713962  2.71818330
  -2.14745756  9.14077614 11.47768230
   1.90093627  6.72576020  7.75735686
   0.08414824  5.32436830 11.44953258
   0.03064819 10.05536146  7.84972792
   2.10285392  8.93649650 11.89642446
  -2.15891096  6.59768350  7.88325655
  11.17929889  3.71314730  2.37882622
  -4.30172009  7.90448256 12.43378698
   4.64447611  7.94922846  2.59134062
   2.10184415  3.72661397 12.09939060
   4.23190703  0.14970497  2.62816843
   2.35712586 11.58080770 12.22711814
  -2.32214213 11.62984407 12.39235748
   9.21342419  0.03179803  2.40682640
   4.58221347  7.95298325 12.00215069
   2.30810920  3.80218632  2.34364235
  -2.07057384  3.96029956 12.29678073
   8.89603540  7.90987252  2.55390102
   4.44631703  7.57593386  7.43333718
  -2.12678846 11.73949632  7.03019523
  11.27816266  3.96579761  7.36910477
   2.19321910  4.12321331  7.11898082
   9.07580628  7.60047565  7.44959932
   8.81229304  0.07218111  7.62018074
  -0.07347119  2.85971953  1.90884657
   6.96385004  8.83391769 12.61522017
   4.37112049 10.37221071  1.64720266
   2.37189973  1.25647959 12.84510483
  -4.52428189 10.42564719  1.89892830
  11.13065513  1.42219236 12.69100442
   6.77036615  6.55783230  6.94010807
   6.71338602  1.00405270  2.59377480
   4.21849410  2.45392383  6.90725309
   9.23132146  5.34737403  2.92073783
   9.28619667  2.42426357  6.69170867
   4.33589897  5.37291959  2.87517383
  -0.00275868 10.55183664 11.92846609
  -0.07851580  5.05572712  7.97064141
  -2.16790526  6.54131720 11.84795390
   2.52220877  9.31250566  7.68934760
   2.50436743  6.31026231 11.82253023
  -2.54744907  9.16048501  8.03769737
  11.85303809  3.02262759 14.70001125
   8.50279446  8.61707537  0.04537182
   5.13345388  8.40767405  0.02401348
   1.68298933  3.11206225 14.65087139
  -3.20866245 11.82505699  0.06114439
   5.02121308  6.92019175  4.94561882
   8.27820524  0.55560018  5.05591885
   5.25790953  1.24560720  4.80697558
   8.51788070  6.92203506  4.96016465
  10.47615795  4.05132974  4.88443820
   3.32540398  3.81209080  4.77304454
  -1.61597512 11.20704862  9.86180863
   1.99312953  4.82929260  9.67349614
  -1.96520897  4.78491475  9.83618383
   1.72666711 10.59204590  9.86378450
   3.26338674  7.79562343  9.76172931
  -3.65663678  7.57428353  9.90400280
   9.91224511  0.12989090 14.69096844
   7.34262213  6.05297433  9.76866296
  12.04458764  2.67258208  1.50842209
   8.46904080  8.98502920 13.23678795
   5.22432041  9.01271326  1.50648618
   1.51806218  2.59743724 13.11667422
  -3.81943739 11.83353764  1.57835066
   3.67350721 11.83646582 13.14738284
  -3.67225438 11.75689964 13.26648083
   3.67129850 11.80123978  1.47722288
   1.47154474  2.73540673  1.45947418
  12.06684650  2.65944177 13.13966348
   8.31612000  9.08119945  1.59854573
   5.22495831  6.50802770  6.49231724
   5.24511913  1.27108132  6.43591614
   8.34984807  6.61742657  3.36906129
   9.96215167  3.84655898  6.40896364
   3.68367110  3.93124511  3.19169215
   9.89216102  3.92123583  3.35497501
   3.61216408  3.83604502  6.36813652
   5.23888039  1.29214572  3.20197963
   8.33019617  6.50799689  6.51547609
   5.21094200  6.64479200  3.35410132
   8.26555388  1.16898983  6.53400426
  -1.53468380 10.65142007 11.35142098
   1.52270101  5.15495043  8.15334679
  -1.52446247  5.14650094 11.35891798
   1.53879309 10.50222165  8.25223200
   3.09110820  7.75419553 11.37326847
  -3.25783604  7.77942975  8.33273778
   3.04313765  7.86269474  8.16447536
  -3.05506411  7.81639649 11.40160146
  -1.67054977  5.07259706  8.27550326
   1.53816524 10.41597274 11.45469551
   1.66518940  5.03781099 11.26234996
   5.29821343  9.05051810 13.20884922
   8.29504580  1.10924466  3.42389338
  -1.62883432 10.62048904  8.22658701
   7.50069580  0.29679504  0.54403430
  -0.25825875  7.92621104  7.09258671
   6.48357811  7.27546064 11.04289822
 


--------------------------------------------------------------------------------------------------------


 k-point  1 :   0.0000 0.0000 0.0000  plane waves:   43405

 maximum and minimum number of plane-waves per node :     10852    10850

 maximum number of plane-waves:     43405
 maximum index in each direction: 
   IXMAX=   22   IYMAX=   22   IZMAX=   24
   IXMIN=  -22   IYMIN=  -22   IZMIN=  -24


 real space projection operators:
  total allocation   :      30283.56 KBytes
  max/ min on nodes  :       7735.86       7405.27


 parallel 3D FFT for wavefunctions:
    minimum data exchange during FFTs selected (reduces bandwidth)
 parallel 3D FFT for charge:
    minimum data exchange during FFTs selected (reduces bandwidth)


 FFT grid for exact exchange (Hartree Fock) 
  NGX = 70; NGY = 70; NGZ = 80

 
 Radii for the augmentation spheres in the non-local exchange
 for species   1 augmentation radius   0.820 (default was   0.722)
       energy cutoff for augmentation   1600.0
 for species   2 augmentation radius   1.055 (default was   0.989)
       energy cutoff for augmentation   1600.0
 for species   3 augmentation radius   1.041 (default was   1.041)
       energy cutoff for augmentation   1600.0
 for species   4 augmentation radius   1.279 (default was   1.125)
       energy cutoff for augmentation   1600.0

 real space projection operators:
  total allocation   :       4814.98 KBytes
  max/ min on nodes  :       1230.97       1175.63

 Maximum index for augmentation-charges in exchange          373
  SETUP_FOCK is finished

 total amount of memory used by VASP MPI-rank0   217385. kBytes
=======================================================================

   base      :      30000. kBytes
   nonlr-proj:      22865. kBytes
   fftplans  :      69849. kBytes
   grid      :      56122. kBytes
   one-center:        870. kBytes
   HF        :         69. kBytes
   wavefun   :      37610. kBytes
 
     INWAV:  cpu time    0.0000: real time    0.0002
 initial charge density was supplied:
 charge density of overlapping atoms calculated
 number of electron     612.0000000 magnetization     112.0000000
 keeping initial charge density in first step


--------------------------------------------------------------------------------------------------------


 Maximum index for non-local projection operator         1306
 Maximum index for augmentation-charges         7899 (set IRDMAX)


--------------------------------------------------------------------------------------------------------


 First call to EWALD:  gamma=   0.133
 Maximum number of real-space cells 3x 3x 3
 Maximum number of reciprocal cells 3x 3x 3

    FEWALD:  cpu time    0.0077: real time    0.0077


--------------------------------------- Iteration      1(   1)  ---------------------------------------


    POTLOK:  cpu time    1.7034: real time    1.7154
    SETDIJ:  cpu time    0.6940: real time    0.6957
     EDDAV:  cpu time   15.2157: real time   15.2975
       DOS:  cpu time    0.0006: real time    0.0006
    --------------------------------------------
      LOOP:  cpu time   17.6137: real time   17.7093

 eigenvalue-minimisations  :  1720
 total energy-change (2. order) : 0.5374881E+04  (-0.2443912E+05)
 number of electron     612.0000000 magnetization     112.0000000
 augmentation part      612.0000000 magnetization     112.0000000

 Free energy of the ion-electron system (eV)
  ---------------------------------------------------
  alpha Z        PSCENC =       626.70725857
  Ewald energy   TEWEN  =     -5785.04764319
  -Hartree energ DENC   =    -29005.80806910
  -exchange      EXHF   =         0.00000000
  -V(xc)+E(xc)   XCENC  =      1246.39567700
  PAW double counting   =     22070.93241091   -21507.07780350
  entropy T*S    EENTRO =        -0.02180396
  eigenvalues    EBANDS =      -124.34682496
  atomic energy  EATOM  =     37853.14759930
  Solvation  Ediel_sol  =         0.00000000
  ---------------------------------------------------
  free energy    TOTEN  =      5374.88080108 eV

  energy without entropy =     5374.90260503  energy(sigma->0) =     5374.89170306
  exchange ACFDT corr.  =         0.00000000  see jH, gK, PRB 81, 115126


--------------------------------------------------------------------------------------------------------




--------------------------------------- Iteration      1(   2)  ---------------------------------------


     EDDAV:  cpu time   17.8669: real time   17.9768
       DOS:  cpu time    0.0006: real time    0.0006
    --------------------------------------------
      LOOP:  cpu time   17.8675: real time   17.9774

 eigenvalue-minimisations  :  2112
 total energy-change (2. order) :-0.4321961E+04  (-0.4056447E+04)
 number of electron     612.0000000 magnetization     112.0000000
 augmentation part      612.0000000 magnetization     112.0000000

 Free energy of the ion-electron system (eV)
  ---------------------------------------------------
  alpha Z        PSCENC =       626.70725857
  Ewald energy   TEWEN  =     -5785.04764319
  -Hartree energ DENC   =    -29005.80806910
  -exchange      EXHF   =         0.00000000
  -V(xc)+E(xc)   XCENC  =      1246.39567700
  PAW double counting   =     22070.93241091   -21507.07780350
  entropy T*S    EENTRO =        -0.01049722
  eigenvalues    EBANDS =     -4446.31870862
  atomic energy  EATOM  =     37853.14759930
  Solvation  Ediel_sol  =         0.00000000
  ---------------------------------------------------
  free energy    TOTEN  =      1052.92022415 eV

  energy without entropy =     1052.93072137  energy(sigma->0) =     1052.92547276
  exchange ACFDT corr.  =         0.00000000  see jH, gK, PRB 81, 115126


--------------------------------------------------------------------------------------------------------




--------------------------------------- Iteration      1(   3)  ---------------------------------------


     EDDAV:  cpu time   17.3486: real time   17.4514
       DOS:  cpu time    0.0006: real time    0.0006
    --------------------------------------------
      LOOP:  cpu time   17.3492: real time   17.4520

 eigenvalue-minimisations  :  2032
 total energy-change (2. order) :-0.5112441E+03  (-0.5069449E+03)
 number of electron     612.0000000 magnetization     112.0000000
 augmentation part      612.0000000 magnetization     112.0000000

 Free energy of the ion-electron system (eV)
  ---------------------------------------------------
  alpha Z        PSCENC =       626.70725857
  Ewald energy   TEWEN  =     -5785.04764319
  -Hartree energ DENC   =    -29005.80806910
  -exchange      EXHF   =         0.00000000
  -V(xc)+E(xc)   XCENC  =      1246.39567700
  PAW double counting   =     22070.93241091   -21507.07780350
  entropy T*S    EENTRO =        -0.00584359
  eigenvalues    EBANDS =     -4957.56745340
  atomic energy  EATOM  =     37853.14759930
  Solvation  Ediel_sol  =         0.00000000
  ---------------------------------------------------
  free energy    TOTEN  =       541.67613301 eV

  energy without entropy =      541.68197659  energy(sigma->0) =      541.67905480
  exchange ACFDT corr.  =         0.00000000  see jH, gK, PRB 81, 115126


--------------------------------------------------------------------------------------------------------




--------------------------------------- Iteration      1(   4)  ---------------------------------------


     EDDAV:  cpu time   17.6880: real time   17.8237
       DOS:  cpu time    0.0006: real time    0.0006
    --------------------------------------------
      LOOP:  cpu time   17.6885: real time   17.8242

 eigenvalue-minimisations  :  2080
 total energy-change (2. order) :-0.1134768E+02  (-0.1129671E+02)
 number of electron     612.0000000 magnetization     112.0000000
 augmentation part      612.0000000 magnetization     112.0000000

 Free energy of the ion-electron system (eV)
  ---------------------------------------------------
  alpha Z        PSCENC =       626.70725857
  Ewald energy   TEWEN  =     -5785.04764319
  -Hartree energ DENC   =    -29005.80806910
  -exchange      EXHF   =         0.00000000
  -V(xc)+E(xc)   XCENC  =      1246.39567700
  PAW double counting   =     22070.93241091   -21507.07780350
  entropy T*S    EENTRO =        -0.00578194
  eigenvalues    EBANDS =     -4968.91519493
  atomic energy  EATOM  =     37853.14759930
  Solvation  Ediel_sol  =         0.00000000
  ---------------------------------------------------
  free energy    TOTEN  =       530.32845311 eV

  energy without entropy =      530.33423506  energy(sigma->0) =      530.33134408
  exchange ACFDT corr.  =         0.00000000  see jH, gK, PRB 81, 115126


--------------------------------------------------------------------------------------------------------




--------------------------------------- Iteration      1(   5)  ---------------------------------------


     EDDAV:  cpu time 2351.4698: real time 2365.8734
       DOS:  cpu time    0.0003: real time    0.0003
    CHARGE:  cpu time    1.3184: real time    1.3215
    MIXING:  cpu time    0.0108: real time    0.0108
    --------------------------------------------
      LOOP:  cpu time 2352.7993: real time 2367.2061

 eigenvalue-minimisations  :  2160
 total energy-change (2. order) :-0.1817426E+04  (-0.4331459E+02)
 number of electron     612.0000001 magnetization     -64.0000000
 augmentation part       69.0933300 magnetization     -63.9179746

 Free energy of the ion-electron system (eV)
  ---------------------------------------------------
  alpha Z        PSCENC =       626.70725857
  Ewald energy   TEWEN  =     -5785.04764319
  -Hartree energ DENC   =    -29005.80806910
  -exchange      EXHF   =      1752.19350102
  -V(xc)+E(xc)   XCENC  =      1246.39567700
  PAW double counting   =     22070.93241091   -21507.07780350
  entropy T*S    EENTRO =        -0.00000000
  eigenvalues    EBANDS =     -8538.54018526
  atomic energy  EATOM  =     37853.14759930
  Solvation  Ediel_sol  =         0.00000000
  ---------------------------------------------------
  free energy    TOTEN  =     -1287.09725425 eV

  energy without entropy =    -1287.09725425  energy(sigma->0) =    -1287.09725425
  exchange ACFDT corr.  =        -0.09461752  see jH, gK, PRB 81, 115126


--------------------------------------------------------------------------------------------------------




--------------------------------------- Iteration      1(   6)  ---------------------------------------


    POTLOK:  cpu time    1.4896: real time    1.5010
    SETDIJ:  cpu time    0.6920: real time    0.6936
     EDDAV:  cpu time 2191.5610: real time 2201.7974
       DOS:  cpu time    0.0004: real time    0.0004
    CHARGE:  cpu time    1.3100: real time    1.3131
    MIXING:  cpu time    0.0120: real time    0.0121
    --------------------------------------------
      LOOP:  cpu time 2195.0650: real time 2205.3176

 eigenvalue-minimisations  :  1960
 total energy-change (2. order) : 0.1887404E+03  (-0.3101125E+02)
 number of electron     612.0000001 magnetization      41.6000000
 augmentation part       63.8587475 magnetization      40.4360099

 Free energy of the ion-electron system (eV)
  ---------------------------------------------------
  alpha Z        PSCENC =       626.70725857
  Ewald energy   TEWEN  =     -5785.04764319
  -Hartree energ DENC   =    -30316.31911236
  -exchange      EXHF   =      1881.01259203
  -V(xc)+E(xc)   XCENC  =      1359.33938056
  PAW double counting   =     25809.70384432   -25266.46775525
  entropy T*S    EENTRO =        -0.00000000
  eigenvalues    EBANDS =     -7260.43302015
  atomic energy  EATOM  =     37853.14759930
  Solvation  Ediel_sol  =         0.00000000
  ---------------------------------------------------
  free energy    TOTEN  =     -1098.35685615 eV

  energy without entropy =    -1098.35685615  energy(sigma->0) =    -1098.35685615
  exchange ACFDT corr.  =         0.00000000  see jH, gK, PRB 81, 115126


--------------------------------------------------------------------------------------------------------




--------------------------------------- Iteration      1(   7)  ---------------------------------------


    POTLOK:  cpu time    1.4974: real time    1.5063
    SETDIJ:  cpu time    0.6910: real time    0.6926
     EDDAV:  cpu time 2100.7916: real time 2110.6920
       DOS:  cpu time    0.0003: real time    0.0003
    CHARGE:  cpu time    1.3141: real time    1.3172
    MIXING:  cpu time    0.0087: real time    0.0087
    --------------------------------------------
      LOOP:  cpu time 2104.3031: real time 2114.2171

 eigenvalue-minimisations  :  1832
 total energy-change (2. order) :-0.3769683E+02  (-0.1508826E+02)
 number of electron     612.0000002 magnetization     -21.7600000
 augmentation part       60.1655533 magnetization     -23.5667106

 Free energy of the ion-electron system (eV)
  ---------------------------------------------------
  alpha Z        PSCENC =       626.70725857
  Ewald energy   TEWEN  =     -5785.04764319
  -Hartree energ DENC   =    -30802.79466903
  -exchange      EXHF   =      1803.88189178
  -V(xc)+E(xc)   XCENC  =      1350.85974934
  PAW double counting   =     27322.36583998   -26783.02861948
  entropy T*S    EENTRO =        -0.00000000
  eigenvalues    EBANDS =     -6722.14509122
  atomic energy  EATOM  =     37853.14759930
  Solvation  Ediel_sol  =         0.00000000
  ---------------------------------------------------
  free energy    TOTEN  =     -1136.05368394 eV

  energy without entropy =    -1136.05368394  energy(sigma->0) =    -1136.05368394
  exchange ACFDT corr.  =        -0.00000000  see jH, gK, PRB 81, 115126


--------------------------------------------------------------------------------------------------------




--------------------------------------- Iteration      1(   8)  ---------------------------------------


    POTLOK:  cpu time    1.4997: real time    1.5077
    SETDIJ:  cpu time    0.6887: real time    0.6905
     EDDAV:  cpu time 2079.3859: real time 2089.0715
       DOS:  cpu time    0.0003: real time    0.0003
    CHARGE:  cpu time    1.3391: real time    1.3424
    MIXING:  cpu time    0.0069: real time    0.0069
    --------------------------------------------
      LOOP:  cpu time 2082.9206: real time 2092.6193

 eigenvalue-minimisations  :  1824
 total energy-change (2. order) :-0.1929770E+02  (-0.4811397E+01)
 number of electron     612.0000002 magnetization      16.2560000
 augmentation part       59.4526747 magnetization      14.7779244

 Free energy of the ion-electron system (eV)
  ---------------------------------------------------
  alpha Z        PSCENC =       626.70725857
  Ewald energy   TEWEN  =     -5785.04764319
  -Hartree energ DENC   =    -30855.27606588
  -exchange      EXHF   =      1758.49837672
  -V(xc)+E(xc)   XCENC  =      1337.94061685
  PAW double counting   =     27678.58583257   -27137.58721474
  entropy T*S    EENTRO =        -0.00000000
  eigenvalues    EBANDS =     -6632.32014676
  atomic energy  EATOM  =     37853.14759930
  Solvation  Ediel_sol  =         0.00000000
  ---------------------------------------------------
  free energy    TOTEN  =     -1155.35138656 eV

  energy without entropy =    -1155.35138656  energy(sigma->0) =    -1155.35138656
  exchange ACFDT corr.  =        -0.00000000  see jH, gK, PRB 81, 115126


--------------------------------------------------------------------------------------------------------




--------------------------------------- Iteration      1(   9)  ---------------------------------------


    POTLOK:  cpu time    1.5272: real time    1.5343
    SETDIJ:  cpu time    0.6856: real time    0.6873
     EDDAV:  cpu time 2033.0885: real time 2043.9435
       DOS:  cpu time    0.0003: real time    0.0003
    CHARGE:  cpu time    1.3006: real time    1.3096
    MIXING:  cpu time    0.0114: real time    0.0115
    --------------------------------------------
      LOOP:  cpu time 2036.6136: real time 2047.4864

 eigenvalue-minimisations  :  1760
 total energy-change (2. order) :-0.1355989E+02  (-0.2004102E+01)
 number of electron     612.0000002 magnetization      -6.5536000
 augmentation part       59.7140258 magnetization      -8.0334997

 Free energy of the ion-electron system (eV)
  ---------------------------------------------------
  alpha Z        PSCENC =       626.70725857
  Ewald energy   TEWEN  =     -5785.04764319
  -Hartree energ DENC   =    -30852.00126146
  -exchange      EXHF   =      1750.35617533
  -V(xc)+E(xc)   XCENC  =      1325.59772278
  PAW double counting   =     27797.96970543   -27255.18035844
  entropy T*S    EENTRO =        -0.00000000
  eigenvalues    EBANDS =     -6630.46047257
  atomic energy  EATOM  =     37853.14759930
  Solvation  Ediel_sol  =         0.00000000
  ---------------------------------------------------
  free energy    TOTEN  =     -1168.91127424 eV

  energy without entropy =    -1168.91127424  energy(sigma->0) =    -1168.91127424
  exchange ACFDT corr.  =         0.00000000  see jH, gK, PRB 81, 115126


--------------------------------------------------------------------------------------------------------




--------------------------------------- Iteration      1(  10)  ---------------------------------------


    POTLOK:  cpu time    1.5360: real time    1.5471
    SETDIJ:  cpu time    0.6865: real time    0.6892
     EDDAV:  cpu time 2064.8609: real time 2075.6698
       DOS:  cpu time    0.0003: real time    0.0003
    CHARGE:  cpu time    1.3382: real time    1.3484
    MIXING:  cpu time    0.0069: real time    0.0069
    --------------------------------------------
      LOOP:  cpu time 2068.4288: real time 2079.2617

 eigenvalue-minimisations  :  1808
 total energy-change (2. order) :-0.3739683E+01  (-0.8633420E+00)
 number of electron     612.0000002 magnetization       7.1321600
 augmentation part       59.9651147 magnetization       5.7776503

 Free energy of the ion-electron system (eV)
  ---------------------------------------------------
  alpha Z        PSCENC =       626.70725857
  Ewald energy   TEWEN  =     -5785.04764319
  -Hartree energ DENC   =    -30874.01790942
  -exchange      EXHF   =      1752.79712810
  -V(xc)+E(xc)   XCENC  =      1323.53980629
  PAW double counting   =     27899.72793360   -27356.54804238
  entropy T*S    EENTRO =        -0.00000000
  eigenvalues    EBANDS =     -6612.95708790
  atomic energy  EATOM  =     37853.14759930
  Solvation  Ediel_sol  =         0.00000000
  ---------------------------------------------------
  free energy    TOTEN  =     -1172.65095703 eV

  energy without entropy =    -1172.65095703  energy(sigma->0) =    -1172.65095703
  exchange ACFDT corr.  =         0.00000000  see jH, gK, PRB 81, 115126


--------------------------------------------------------------------------------------------------------




--------------------------------------- Iteration      1(  11)  ---------------------------------------


    POTLOK:  cpu time    1.5908: real time    1.6032
    SETDIJ:  cpu time    0.6884: real time    0.6926
     EDDAV:  cpu time 2031.6305: real time 2043.2046
       DOS:  cpu time    0.0003: real time    0.0003
    CHARGE:  cpu time    1.3416: real time    1.3448
    MIXING:  cpu time    0.0072: real time    0.0072
    --------------------------------------------
      LOOP:  cpu time 2035.2588: real time 2046.8528

 eigenvalue-minimisations  :  1760
 total energy-change (2. order) :-0.4696078E+01  (-0.3673607E+00)
 number of electron     612.0000002 magnetization      -1.0792960
 augmentation part       59.9688004 magnetization      -2.4678433

 Free energy of the ion-electron system (eV)
  ---------------------------------------------------
  alpha Z        PSCENC =       626.70725857
  Ewald energy   TEWEN  =     -5785.04764319
  -Hartree energ DENC   =    -30906.22736738
  -exchange      EXHF   =      1754.49799914
  -V(xc)+E(xc)   XCENC  =      1321.15104879
  PAW double counting   =     27983.53191412   -27440.45319734
  entropy T*S    EENTRO =        -0.00000000
  eigenvalues    EBANDS =     -6584.65464745
  atomic energy  EATOM  =     37853.14759930
  Solvation  Ediel_sol  =         0.00000000
  ---------------------------------------------------
  free energy    TOTEN  =     -1177.34703542 eV

  energy without entropy =    -1177.34703542  energy(sigma->0) =    -1177.34703542
  exchange ACFDT corr.  =        -0.00000000  see jH, gK, PRB 81, 115126


--------------------------------------------------------------------------------------------------------




--------------------------------------- Iteration      1(  12)  ---------------------------------------


    POTLOK:  cpu time    1.5944: real time    1.6019
    SETDIJ:  cpu time    0.6858: real time    0.6874
     EDDAV:  cpu time 2062.5123: real time 2068.5876
       DOS:  cpu time    0.0003: real time    0.0003
    CHARGE:  cpu time    1.3076: real time    1.3155
    MIXING:  cpu time    0.0104: real time    0.0104
    --------------------------------------------
      LOOP:  cpu time 2066.1108: real time 2072.2032

 eigenvalue-minimisations  :  1792
 total energy-change (2. order) :-0.4517891E+00  (-0.1120157E+00)
 number of electron     612.0000002 magnetization       3.8475776
 augmentation part       59.9143915 magnetization       2.4827614

 Free energy of the ion-electron system (eV)
  ---------------------------------------------------
  alpha Z        PSCENC =       626.70725857
  Ewald energy   TEWEN  =     -5785.04764319
  -Hartree energ DENC   =    -30926.43492329
  -exchange      EXHF   =      1753.75223413
  -V(xc)+E(xc)   XCENC  =      1321.55368088
  PAW double counting   =     28027.38170259   -27484.39304085
  entropy T*S    EENTRO =        -0.00000000
  eigenvalues    EBANDS =     -6564.46569263
  atomic energy  EATOM  =     37853.14759930
  Solvation  Ediel_sol  =         0.00000000
  ---------------------------------------------------
  free energy    TOTEN  =     -1177.79882450 eV

  energy without entropy =    -1177.79882450  energy(sigma->0) =    -1177.79882450
  exchange ACFDT corr.  =        -0.00000000  see jH, gK, PRB 81, 115126


--------------------------------------------------------------------------------------------------------




--------------------------------------- Iteration      1(  13)  ---------------------------------------


    POTLOK:  cpu time    1.7074: real time    1.7203
    SETDIJ:  cpu time    0.6884: real time    0.6901
     EDDAV:  cpu time 2100.7259: real time 2106.9361
       DOS:  cpu time    0.0003: real time    0.0003
    CHARGE:  cpu time    1.3400: real time    1.3433
    MIXING:  cpu time    0.0074: real time    0.0074
    --------------------------------------------
      LOOP:  cpu time 2104.4694: real time 2110.6975

 eigenvalue-minimisations  :  1832
 total energy-change (2. order) :-0.8174022E+00  (-0.4187082E-01)
 number of electron     612.0000002 magnetization       0.8914534
 augmentation part       59.8881258 magnetization      -0.4710474

 Free energy of the ion-electron system (eV)
  ---------------------------------------------------
  alpha Z        PSCENC =       626.70725857
  Ewald energy   TEWEN  =     -5785.04764319
  -Hartree energ DENC   =    -30937.87652483
  -exchange      EXHF   =      1753.08147958
  -V(xc)+E(xc)   XCENC  =      1321.31653805
  PAW double counting   =     28045.43041045   -27502.40427295
  entropy T*S    EENTRO =        -0.00000000
  eigenvalues    EBANDS =     -6552.97107166
  atomic energy  EATOM  =     37853.14759930
  Solvation  Ediel_sol  =         0.00000000
  ---------------------------------------------------
  free energy    TOTEN  =     -1178.61622666 eV

  energy without entropy =    -1178.61622666  energy(sigma->0) =    -1178.61622666
  exchange ACFDT corr.  =         0.00000000  see jH, gK, PRB 81, 115126


--------------------------------------------------------------------------------------------------------




--------------------------------------- Iteration      1(  14)  ---------------------------------------


    POTLOK:  cpu time    1.6807: real time    1.6890
    SETDIJ:  cpu time    0.6878: real time    0.6894
     EDDAV:  cpu time 2079.7756: real time 2086.3423
       DOS:  cpu time    0.0003: real time    0.0003
    CHARGE:  cpu time    1.3458: real time    1.3534
    MIXING:  cpu time    0.0070: real time    0.0070
    --------------------------------------------
      LOOP:  cpu time 2083.4972: real time 2090.0814

 eigenvalue-minimisations  :  1824
 total energy-change (2. order) : 0.7225487E-03  (-0.1098932E-01)
 number of electron     612.0000002 magnetization       2.6651279
 augmentation part       59.8860825 magnetization       1.3151578

 Free energy of the ion-electron system (eV)
  ---------------------------------------------------
  alpha Z        PSCENC =       626.70725857
  Ewald energy   TEWEN  =     -5785.04764319
  -Hartree energ DENC   =    -30944.19593896
  -exchange      EXHF   =      1752.60467074
  -V(xc)+E(xc)   XCENC  =      1321.42476281
  PAW double counting   =     28050.93447602   -27507.88307963
  entropy T*S    EENTRO =        -0.00000000
  eigenvalues    EBANDS =     -6546.30760978
  atomic energy  EATOM  =     37853.14759930
  Solvation  Ediel_sol  =         0.00000000
  ---------------------------------------------------
  free energy    TOTEN  =     -1178.61550411 eV

  energy without entropy =    -1178.61550411  energy(sigma->0) =    -1178.61550411
  exchange ACFDT corr.  =        -0.00000000  see jH, gK, PRB 81, 115126


--------------------------------------------------------------------------------------------------------




--------------------------------------- Iteration      1(  15)  ---------------------------------------


    POTLOK:  cpu time    1.7483: real time    1.7551
    SETDIJ:  cpu time    0.6887: real time    0.6903
     EDDAV:  cpu time 2191.0295: real time 2198.0572
       DOS:  cpu time    0.0003: real time    0.0003
    CHARGE:  cpu time    1.3223: real time    1.3258
    MIXING:  cpu time    0.0068: real time    0.0068
    --------------------------------------------
      LOOP:  cpu time 2194.7959: real time 2201.8356

 eigenvalue-minimisations  :  1960
 total energy-change (2. order) :-0.7587576E-01  (-0.4678192E-02)
 number of electron     612.0000002 magnetization       1.6009232
 augmentation part       59.8884773 magnetization       0.2476625

 Free energy of the ion-electron system (eV)
  ---------------------------------------------------
  alpha Z        PSCENC =       626.70725857
  Ewald energy   TEWEN  =     -5785.04764319
  -Hartree energ DENC   =    -30949.39490501
  -exchange      EXHF   =      1752.54107429
  -V(xc)+E(xc)   XCENC  =      1321.48281108
  PAW double counting   =     28053.19537867   -27510.13240866
  entropy T*S    EENTRO =        -0.00000000
  eigenvalues    EBANDS =     -6541.19054492
  atomic energy  EATOM  =     37853.14759930
  Solvation  Ediel_sol  =         0.00000000
  ---------------------------------------------------
  free energy    TOTEN  =     -1178.69137986 eV

  energy without entropy =    -1178.69137986  energy(sigma->0) =    -1178.69137986
  exchange ACFDT corr.  =        -0.00000000  see jH, gK, PRB 81, 115126


--------------------------------------------------------------------------------------------------------




--------------------------------------- Iteration      1(  16)  ---------------------------------------


    POTLOK:  cpu time    1.7166: real time    1.7239
    SETDIJ:  cpu time    0.6902: real time    0.6918
     EDDAV:  cpu time 2211.2540: real time 2218.4089
       DOS:  cpu time    0.0003: real time    0.0003
    CHARGE:  cpu time    1.3354: real time    1.3388
    MIXING:  cpu time    0.0115: real time    0.0115
    --------------------------------------------
      LOOP:  cpu time 2215.0079: real time 2222.1752

 eigenvalue-minimisations  :  1976
 total energy-change (2. order) :-0.1788490E-02  (-0.9602024E-03)
 number of electron     612.0000002 magnetization       2.2394460
 augmentation part       59.8878422 magnetization       0.8864670

 Free energy of the ion-electron system (eV)
  ---------------------------------------------------
  alpha Z        PSCENC =       626.70725857
  Ewald energy   TEWEN  =     -5785.04764319
  -Hartree energ DENC   =    -30953.75355280
  -exchange      EXHF   =      1752.50079288
  -V(xc)+E(xc)   XCENC  =      1321.55607275
  PAW double counting   =     28054.38483800   -27511.32379992
  entropy T*S    EENTRO =        -0.00000000
  eigenvalues    EBANDS =     -6536.86473396
  atomic energy  EATOM  =     37853.14759930
  Solvation  Ediel_sol  =         0.00000000
  ---------------------------------------------------
  free energy    TOTEN  =     -1178.69316835 eV

  energy without entropy =    -1178.69316835  energy(sigma->0) =    -1178.69316835
  exchange ACFDT corr.  =         0.00000000  see jH, gK, PRB 81, 115126


--------------------------------------------------------------------------------------------------------




--------------------------------------- Iteration      1(  17)  ---------------------------------------


    POTLOK:  cpu time    1.7163: real time    1.7255
    SETDIJ:  cpu time    0.6874: real time    0.6891
     EDDAV:  cpu time 2093.0151: real time 2099.4025
       DOS:  cpu time    0.0003: real time    0.0003
    CHARGE:  cpu time    1.3410: real time    1.3443
    MIXING:  cpu time    0.0071: real time    0.0071
    --------------------------------------------
      LOOP:  cpu time 2096.7673: real time 2103.1689

 eigenvalue-minimisations  :  1840
 total energy-change (2. order) :-0.3707850E-02  (-0.5120730E-03)
 number of electron     612.0000002 magnetization       1.8563324
 augmentation part       59.8850932 magnetization       0.5015959

 Free energy of the ion-electron system (eV)
  ---------------------------------------------------
  alpha Z        PSCENC =       626.70725857
  Ewald energy   TEWEN  =     -5785.04764319
  -Hartree energ DENC   =    -30957.40371524
  -exchange      EXHF   =      1752.47746078
  -V(xc)+E(xc)   XCENC  =      1321.61518069
  PAW double counting   =     28054.88637177   -27511.82200241
  entropy T*S    EENTRO =        -0.00000000
  eigenvalues    EBANDS =     -6533.25738649
  atomic energy  EATOM  =     37853.14759930
  Solvation  Ediel_sol  =         0.00000000
  ---------------------------------------------------
  free energy    TOTEN  =     -1178.69687620 eV

  energy without entropy =    -1178.69687620  energy(sigma->0) =    -1178.69687620
  exchange ACFDT corr.  =         0.00000000  see jH, gK, PRB 81, 115126


--------------------------------------------------------------------------------------------------------




--------------------------------------- Iteration      1(  18)  ---------------------------------------


    POTLOK:  cpu time    1.7154: real time    1.7249
    SETDIJ:  cpu time    0.7069: real time    0.7087
     EDDAV:  cpu time 2132.1423: real time 2139.7043
       DOS:  cpu time    0.0003: real time    0.0003
    CHARGE:  cpu time    1.3349: real time    1.3382
    MIXING:  cpu time    0.0078: real time    0.0078
    --------------------------------------------
      LOOP:  cpu time 2135.9077: real time 2143.4843

 eigenvalue-minimisations  :  1888
 total energy-change (2. order) :-0.2261565E-02  (-0.2026733E-03)
 number of electron     612.0000002 magnetization       2.0862006
 augmentation part       59.8835806 magnetization       0.7328505

 Free energy of the ion-electron system (eV)
  ---------------------------------------------------
  alpha Z        PSCENC =       626.70725857
  Ewald energy   TEWEN  =     -5785.04764319
  -Hartree energ DENC   =    -30960.33715397
  -exchange      EXHF   =      1752.44644948
  -V(xc)+E(xc)   XCENC  =      1321.65681276
  PAW double counting   =     28054.86845317   -27511.79944198
  entropy T*S    EENTRO =        -0.00000000
  eigenvalues    EBANDS =     -6530.34147190
  atomic energy  EATOM  =     37853.14759930
  Solvation  Ediel_sol  =         0.00000000
  ---------------------------------------------------
  free energy    TOTEN  =     -1178.69913777 eV

  energy without entropy =    -1178.69913777  energy(sigma->0) =    -1178.69913777
  exchange ACFDT corr.  =         0.00000000  see jH, gK, PRB 81, 115126


--------------------------------------------------------------------------------------------------------




--------------------------------------- Iteration      1(  19)  ---------------------------------------


    POTLOK:  cpu time    1.7201: real time    1.7269
    SETDIJ:  cpu time    0.6897: real time    0.6915
     EDDAV:  cpu time 2171.3625: real time 2179.8723
       DOS:  cpu time    0.0003: real time    0.0003
    CHARGE:  cpu time    1.3384: real time    1.3417
    MIXING:  cpu time    0.0069: real time    0.0069
    --------------------------------------------
      LOOP:  cpu time 2175.1179: real time 2183.6396

 eigenvalue-minimisations  :  1928
 total energy-change (2. order) :-0.1824777E-02  (-0.1058536E-03)
 number of electron     612.0000002 magnetization       1.9482796
 augmentation part       59.8825306 magnetization       0.5946468

 Free energy of the ion-electron system (eV)
[...]
      4.23191      0.14970      2.62817        -0.099978      0.373083     -0.190233
      2.35713     11.58081     12.22712         0.145309     -0.329703      0.047840
     -2.32214     11.62984     12.39236        -0.211010     -0.304572     -0.040885
      9.21342      0.03180      2.40683         0.305631      0.240178     -0.229794
      4.58221      7.95298     12.00215        -0.552944      0.082654     -0.114785
      2.30811      3.80219      2.34364         0.209368     -0.363464     -0.006811
     -2.07057      3.96030     12.29678         0.388122     -0.009175     -0.056853
      8.89604      7.90987      2.55390        -0.426740     -0.068393     -0.023850
      4.44632      7.57593      7.43334        -0.222828     -0.315575     -0.060028
     -2.12679     11.73950      7.03020         0.353579      0.322381      0.015163
     11.27816      3.96580      7.36910        -0.207585      0.406897      0.007585
      2.19322      4.12321      7.11898         0.265913      0.316008      0.120424
      9.07581      7.60048      7.44960         0.196135     -0.373947      0.014411
      8.81229      0.07218      7.62018        -0.367409     -0.130237     -0.153484
     -0.07347      2.85972      1.90885         0.006027     -0.125783     -0.331581
      6.96385      8.83392     12.61522         0.399848      0.095391      0.381915
      4.37112     10.37221      1.64720         0.050482      0.056678     -0.134126
      2.37190      1.25648     12.84510        -0.029267      0.015939      0.286043
     -4.52428     10.42565      1.89893        -0.038004      0.056588     -0.251160
     11.13066      1.42219     12.69100         0.137452     -0.015898      0.347403
      6.77037      6.55783      6.94011         0.010325     -0.066539     -0.285516
      6.71339      1.00405      2.59377        -0.281219      0.148350      0.378794
      4.21849      2.45392      6.90725         0.137099      0.147183     -0.377775
      9.23132      5.34737      2.92074        -0.108714     -0.040884      0.355817
      9.28620      2.42426      6.69171        -0.112882      0.135930     -0.192229
      4.33590      5.37292      2.87517         0.092774     -0.083642      0.327457
     -0.00276     10.55184     11.92847         0.003014     -0.017000     -0.388185
     -0.07852      5.05573      7.97064        -0.002727      0.099486      0.196546
     -2.16791      6.54132     11.84795        -0.081766     -0.047667     -0.388385
      2.52221      9.31251      7.68935        -0.176102     -0.176916      0.370734
      2.50437      6.31026     11.82253        -0.148736      0.002232     -0.415447
     -2.54745      9.16049      8.03770        -0.076222     -0.358865      0.180374
     11.85304      3.02263     14.70001         0.167363     -0.280262     -0.003854
      8.50279      8.61708      0.04537        -0.050764      0.321960      0.049670
      5.13345      8.40767      0.02401         0.084228      0.407138      0.329690
      1.68299      3.11206     14.65087        -0.154711     -0.343825      0.008343
     -3.20866     11.82506      0.06114        -0.390022     -0.006614     -0.003542
      5.02121      6.92019      4.94562         0.155650     -0.290797      0.041095
      8.27821      0.55560      5.05592        -0.027132      0.394996      0.278548
      5.25791      1.24561      4.80698        -0.016050      0.068780      0.020988
      8.51788      6.92204      4.96016        -0.135227     -0.298015      0.038176
     10.47616      4.05133      4.88444        -0.426741     -0.104333      0.054759
      3.32540      3.81209      4.77304         0.269848      0.052687      0.028250
     -1.61598     11.20705      9.86181         0.041519     -0.374114      0.271051
      1.99313      4.82929      9.67350        -0.298236      0.220964     -0.023822
     -1.96521      4.78491      9.83618         0.266712      0.271311     -0.043004
      1.72667     10.59205      9.86378        -0.147201     -0.132341     -0.001581
      3.26339      7.79562      9.76173        -0.180454     -0.010234     -0.105447
     -3.65664      7.57428      9.90400         0.322945      0.112825     -0.045203
      9.91225      0.12989     14.69097         0.403817     -0.075773      0.026099
      7.34262      6.05297      9.76866         0.185703     -0.255629     -0.233908
     12.04459      2.67258      1.50842         0.027639      0.018408      0.017984
      8.46904      8.98503     13.23679        -0.371225     -0.010531     -0.066862
      5.22432      9.01271      1.50649        -0.039530     -0.006687     -0.088027
      1.51806      2.59744     13.11667         0.042202     -0.025191     -0.047574
     -3.81944     11.83354      1.57835         0.010874     -0.075484      0.052066
      3.67351     11.83647     13.14738         0.037001     -0.070030      0.005930
     -3.67225     11.75690     13.26648        -0.016041     -0.021588     -0.052306
      3.67130     11.80124      1.47722        -0.076648     -0.088496      0.020621
      1.47154      2.73541      1.45947        -0.034048      0.044189      0.043990
     12.06685      2.65944     13.13966        -0.071452     -0.019990     -0.038311
      8.31612      9.08120      1.59855         0.003667      0.001964     -0.033172
      5.22496      6.50803      6.49232        -0.000992      0.066594     -0.027121
      5.24512      1.27108      6.43592        -0.084449     -0.062836     -0.005989
      8.34985      6.61743      3.36906         0.054708      0.044004     -0.081688
      9.96215      3.84656      6.40896         0.071797     -0.082138      0.018958
      3.68367      3.93125      3.19169        -0.026191      0.040651     -0.070205
      9.89216      3.92124      3.35498         0.007722      0.005108     -0.067382
      3.61216      3.83605      6.36814        -0.049118     -0.071623      0.034053
      5.23888      1.29215      3.20198         0.158117     -0.063487     -0.022257
      8.33020      6.50800      6.51548        -0.035475      0.081251     -0.068356
      5.21094      6.64479      3.35410        -0.077997      0.056931     -0.070083
      8.26555      1.16899      6.53400         0.057979     -0.069160      0.002411
     -1.53468     10.65142     11.35142         0.028217      0.050163      0.021891
      1.52270      5.15495      8.15335        -0.013059     -0.037771     -0.035612
     -1.52446      5.14650     11.35892        -0.013310     -0.008451      0.075577
      1.53879     10.50222      8.25223        -0.060003      0.026783     -0.004605
      3.09111      7.75420     11.37327         0.286368      0.083071      0.243312
     -3.25784      7.77943      8.33274         0.077212      0.114969     -0.065369
      3.04314      7.86269      8.16448         0.022988      0.053245      0.042532
     -3.05506      7.81640     11.40160        -0.002100      0.014205      0.149886
     -1.67055      5.07260      8.27550         0.017136     -0.028462     -0.025234
      1.53817     10.41597     11.45470         0.043063     -0.014171      0.051100
      1.66519      5.03781     11.26235         0.060430      0.035327      0.078150
      5.29821      9.05052     13.20885         0.096854     -0.113621     -0.132355
      8.29505      1.10924      3.42389        -0.037469     -0.072037     -0.056917
     -1.62883     10.62049      8.22659         0.022592      0.003704     -0.029474
      7.50070      0.29680      0.54403        -0.004536     -0.019659     -0.001313
     -0.25826      7.92621      7.09259         0.005772      0.014999     -0.034805
      6.48358      7.27546     11.04290        -0.173431      0.275942      0.284083
 -----------------------------------------------------------------------------------
    total drift:                               -0.002533     -0.000645      0.002895


--------------------------------------------------------------------------------------------------------



  FREE ENERGIE OF THE ION-ELECTRON SYSTEM (eV)
  ---------------------------------------------------
  free  energy   TOTEN  =     -1178.70702857 eV

  energy  without entropy=    -1178.70702857  energy(sigma->0) =    -1178.70702857
 


--------------------------------------------------------------------------------------------------------


    POTLOK:  cpu time    2.3704: real time    2.3765


--------------------------------------------------------------------------------------------------------


 stress matrix after NEB project (eV)
      0.00000      0.00000      0.00000
      0.00000      0.00000      0.00000
      0.00000      0.00000      0.00000
  FORCES: max atom, RMS     0.570750    0.321876
  FORCE total and by dimension    3.406413    0.552944
  Stress total and by dimension    0.000000    0.000000
     LOOP+:  cpu time75588.1849: real time75862.9250
    4ORBIT:  cpu time    0.0000: real time    0.0000
 


 total charge     
 
# of ion       s       p       d       tot
------------------------------------------
    1        1.578   3.719   0.000   5.297
    2        1.576   3.728   0.000   5.304
    3        1.581   3.725   0.000   5.306
    4        1.578   3.720   0.000   5.298
    5        1.577   3.727   0.000   5.304
    6        1.579   3.694   0.000   5.272
    7        1.580   3.733   0.000   5.313
    8        1.579   3.694   0.000   5.273
    9        1.581   3.698   0.000   5.279
   10        1.577   3.721   0.000   5.298
   11        1.579   3.727   0.000   5.306
   12        1.581   3.713   0.000   5.294
   13        1.574   3.742   0.000   5.316
   14        1.578   3.686   0.000   5.264
   15        1.576   3.742   0.000   5.318
   16        1.579   3.664   0.000   5.243
   17        1.579   3.710   0.000   5.289
   18        1.579   3.693   0.000   5.272
   19        1.578   3.733   0.000   5.311
   20        1.581   3.728   0.000   5.309
   21        1.583   3.723   0.000   5.306
   22        1.579   3.725   0.000   5.304
   23        1.582   3.726   0.000   5.308
   24        1.580   3.727   0.000   5.307
   25        1.579   3.728   0.000   5.307
   26        1.584   3.686   0.000   5.269
   27        1.578   3.669   0.000   5.247
   28        1.580   3.728   0.000   5.307
   29        1.581   3.737   0.000   5.318
   30        1.581   3.725   0.000   5.305
   31        1.581   3.734   0.000   5.315
   32        1.584   3.692   0.000   5.276
   33        1.581   3.725   0.000   5.306
   34        1.581   3.726   0.000   5.307
   35        1.581   3.729   0.000   5.310
   36        1.581   3.722   0.000   5.303
   37        1.578   3.736   0.000   5.315
   38        1.578   3.663   0.000   5.241
   39        1.575   3.760   0.000   5.335
   40        1.576   3.744   0.000   5.320
   41        1.576   3.752   0.000   5.328
   42        1.579   3.730   0.000   5.310
   43        1.579   3.741   0.000   5.320
   44        1.578   3.663   0.000   5.241
   45        1.582   3.726   0.000   5.308
   46        1.578   3.731   0.000   5.309
   47        1.575   3.747   0.000   5.323
   48        1.578   3.739   0.000   5.316
   49        1.579   3.721   0.000   5.300
   50        1.575   3.745   0.000   5.320
   51        1.580   3.737   0.000   5.317
   52        1.582   3.715   0.000   5.297
   53        1.580   3.723   0.000   5.302
   54        1.580   3.702   0.000   5.282
   55        1.578   3.734   0.000   5.312
   56        1.578   3.726   0.000   5.304
   57        1.584   3.682   0.000   5.265
   58        1.578   3.718   0.000   5.296
   59        1.580   3.714   0.000   5.294
   60        1.578   3.734   0.000   5.312
   61        1.582   3.684   0.000   5.266
   62        1.573   3.750   0.000   5.323
   63        1.577   3.729   0.000   5.306
   64        1.581   3.712   0.000   5.293
   65        1.575   3.734   0.000   5.309
   66        1.582   3.682   0.000   5.263
   67        1.578   3.718   0.000   5.296
   68        1.581   3.728   0.000   5.309
   69        1.574   3.744   0.000   5.318
   70        1.575   3.747   0.000   5.322
   71        1.580   3.713   0.000   5.293
   72        1.580   3.683   0.000   5.263
   73        1.648   3.050   0.000   4.698
   74        0.637   0.995   0.000   1.632
   75        0.641   0.995   0.000   1.636
   76        0.645   1.007   0.000   1.651
   77        0.635   0.987   0.000   1.622
   78        0.639   0.998   0.000   1.637
   79        0.643   0.997   0.000   1.640
   80        0.637   0.992   0.000   1.629
   81        0.643   1.000   0.000   1.644
   82        0.636   0.989   0.000   1.626
   83        0.638   0.997   0.000   1.635
   84        0.639   0.998   0.000   1.637
   85        0.641   1.007   0.000   1.647
   86        0.643   0.997   0.000   1.640
   87        0.637   0.990   0.000   1.627
   88        0.639   0.996   0.000   1.634
   89        0.638   0.993   0.000   1.631
   90        0.641   0.998   0.000   1.639
   91        0.640   0.998   0.000   1.638
   92        0.644   1.001   0.000   1.644
   93        0.639   0.999   0.000   1.638
   94        0.638   0.995   0.000   1.633
   95        0.642   0.994   0.000   1.636
   96        0.641   0.994   0.000   1.635
   97        0.637   0.986   0.000   1.622
   98        0.640   1.003   0.000   1.643
   99        0.643   0.997   0.000   1.641
  100        0.641   0.993   0.000   1.634
  101        0.645   1.001   0.000   1.645
  102        0.640   0.996   0.000   1.636
  103        0.639   1.000   0.000   1.640
  104        0.641   0.998   0.000   1.639
  105        0.637   0.992   0.000   1.629
  106        0.636   0.989   0.000   1.625
  107        0.352   0.468   0.000   0.819
  108        0.350   0.469   0.000   0.819
  109        0.349   0.469   0.000   0.818
  110        0.089   0.060   9.258   9.407
  111        0.099   0.074   9.259   9.432
  112        0.244   0.180   8.993   9.416
--------------------------------------------------
tot        137.930 305.444  27.510 470.884
 


 magnetization (x)
 
# of ion       s       p       d       tot
------------------------------------------
    1        0.000  -0.000   0.000  -0.000
    2        0.000   0.001   0.000   0.001
    3        0.000   0.000   0.000   0.000
    4        0.000  -0.000   0.000   0.000
    5        0.000   0.000   0.000   0.000
    6        0.000   0.001   0.000   0.001
    7       -0.000  -0.000   0.000  -0.000
    8       -0.000  -0.000   0.000  -0.000
    9       -0.000   0.000   0.000   0.000
   10       -0.000   0.000   0.000   0.000
   11       -0.000  -0.000   0.000  -0.000
   12        0.000  -0.000   0.000  -0.000
   13        0.000   0.000   0.000   0.000
   14       -0.000  -0.000   0.000  -0.000
   15       -0.000   0.000   0.000   0.000
   16        0.000   0.000   0.000   0.000
   17        0.000   0.001   0.000   0.001
   18       -0.000  -0.000   0.000  -0.000
   19        0.000  -0.000   0.000  -0.000
   20       -0.000  -0.001   0.000  -0.001
   21        0.000   0.000   0.000   0.000
   22        0.000   0.000   0.000   0.000
   23        0.000   0.000   0.000   0.000
   24        0.000   0.000   0.000   0.000
   25        0.000   0.000   0.000   0.000
   26       -0.000   0.000   0.000   0.000
   27        0.002   0.023   0.000   0.025
   28        0.000   0.000   0.000   0.000
   29       -0.000   0.000   0.000   0.000
   30        0.000   0.000   0.000   0.000
   31       -0.000  -0.000   0.000  -0.000
   32        0.000   0.000   0.000   0.000
   33       -0.000  -0.000   0.000  -0.000
   34       -0.000  -0.000   0.000  -0.000
   35        0.000   0.002   0.000   0.002
   36        0.000   0.000   0.000   0.000
   37        0.000  -0.000   0.000   0.000
   38        0.002   0.029   0.000   0.031
   39       -0.000   0.000   0.000   0.000
   40       -0.000  -0.000   0.000  -0.000
   41       -0.000   0.000   0.000   0.000
   42       -0.000   0.000   0.000   0.000
   43        0.001   0.009   0.000   0.009
   44        0.000  -0.000   0.000  -0.000
   45       -0.000  -0.000   0.000  -0.000
   46        0.000   0.000   0.000   0.000
   47        0.000   0.000   0.000   0.000
   48        0.000   0.000   0.000   0.000
   49        0.000   0.000   0.000   0.000
   50       -0.000   0.000   0.000   0.000
   51       -0.000   0.000   0.000   0.000
   52       -0.000   0.000   0.000  -0.000
   53        0.000   0.000   0.000   0.000
   54        0.000   0.000   0.000   0.000
   55       -0.000  -0.000   0.000  -0.000
   56        0.000   0.001   0.000   0.001
   57        0.000   0.001   0.000   0.001
   58        0.000   0.000   0.000   0.000
   59        0.000   0.000   0.000   0.000
   60        0.000   0.000   0.000   0.000
   61       -0.000   0.000   0.000   0.000
   62       -0.000  -0.000   0.000  -0.000
   63        0.000   0.000   0.000   0.000
   64       -0.000  -0.000   0.000  -0.000
   65       -0.000   0.000   0.000   0.000
   66       -0.000   0.000   0.000   0.000
   67        0.000   0.000   0.000   0.000
   68       -0.000   0.000   0.000   0.000
   69        0.000   0.000   0.000   0.000
   70       -0.000  -0.000   0.000  -0.000
   71        0.000   0.004   0.000   0.005
   72       -0.000   0.000   0.000   0.000
   73        0.019   1.335   0.000   1.354
   74        0.000  -0.000   0.000  -0.000
   75       -0.000   0.000   0.000   0.000
   76       -0.000  -0.000   0.000  -0.000
   77       -0.000   0.000   0.000   0.000
   78       -0.000  -0.000   0.000  -0.000
   79       -0.000  -0.000   0.000  -0.000
   80        0.000   0.000   0.000   0.000
   81       -0.000  -0.000   0.000  -0.000
   82       -0.000  -0.000   0.000  -0.000
   83       -0.000  -0.000   0.000  -0.000
   84       -0.000  -0.000   0.000  -0.000
   85       -0.000  -0.000   0.000  -0.000
   86        0.000   0.000   0.000   0.000
   87        0.000   0.000   0.000   0.000
   88       -0.000  -0.000   0.000  -0.000
   89       -0.000  -0.000   0.000  -0.000
   90       -0.000  -0.000   0.000  -0.000
   91       -0.000  -0.000   0.000  -0.000
   92        0.000  -0.000   0.000  -0.000
   93       -0.000  -0.000   0.000  -0.000
   94       -0.000  -0.000   0.000  -0.000
   95       -0.000  -0.000   0.000  -0.000
   96       -0.000  -0.000   0.000  -0.000
   97       -0.000   0.000   0.000   0.000
   98       -0.000  -0.000   0.000  -0.000
   99       -0.000  -0.000   0.000  -0.000
  100        0.000   0.000   0.000   0.000
  101       -0.000  -0.000   0.000  -0.000
  102       -0.000  -0.000   0.000  -0.000
  103       -0.000   0.000   0.000  -0.000
  104       -0.000  -0.000   0.000  -0.000
  105        0.000   0.000   0.000   0.000
  106        0.000   0.000   0.000   0.000
  107       -0.000   0.000   0.000  -0.000
  108       -0.000  -0.000   0.000  -0.000
  109       -0.000   0.000   0.000   0.000
  110       -0.000  -0.000   0.000  -0.000
  111       -0.000  -0.000   0.000   0.000
  112       -0.018  -0.009   0.320   0.293
--------------------------------------------------
tot          0.007   1.397   0.320   1.724
 

 total amount of memory used by VASP MPI-rank0   225932. kBytes
=======================================================================

   base      :      30000. kBytes
   nonlr-proj:      31412. kBytes
   fftplans  :      69849. kBytes
   grid      :      56122. kBytes
   one-center:        870. kBytes
   HF        :         69. kBytes
   wavefun   :      37610. kBytes
 
  
  
 General timing and accounting informations for this job:
 ========================================================
  
                  Total CPU time used (sec):    75610.617
                            User time (sec):    68740.058
                          System time (sec):     6870.562
                         Elapsed time (sec):    75885.679
  
                   Maximum memory used (kb):      454320.
                   Average memory used (kb):           0.
  
                          Minor page faults:      4125725
                          Major page faults:           10
                 Voluntary context switches:         1179
