>>>  VASP 5.4.4 with BEEF-vdw and vtst
--------------------------------------------------------
>>>  Job information
     SLURM_JOBID=8055165
     SLURM_JOB_NODELIST=cpn-q08-35-01
     SLURM_NNODES=1
     SLURMTMPDIR=/scratch/8055165
     working directory = /projects/academic/ericwalk/ruthbell/CO2_1_Alternate/PBE
--------------------------------------------------------
>>>  Module information
--------------------------------------------------------
>>>  Running Configuration
NPROCS=16
--------------------------------------------------------
>>>  Job started at Tue Apr  5 16:49:24 EDT 2022
--------------------------------------------------------
 running on   16 total cores
 distrk:  each k-point on   16 cores,    1 groups
 distr:  one band on    4 cores,    4 groups
 using from now: INCAR     
 vasp.5.4.4.18Apr17-6-g9f103f2a35 (build Dec 31 2018 11:41:54) complex          
  
 POSCAR found type information on POSCAR  O  Si Al Ag C 
 POSCAR found :  5 types and     114 ions
 scaLAPACK will be used
 LDA part: xc-table for Pade appr. of Perdew
 POSCAR found type information on POSCAR  O  Si Al Ag C 
 POSCAR found :  5 types and     114 ions
 POSCAR, INCAR and KPOINTS ok, starting setup
 FFT: planning ...
 WAVECAR not read
 WARNING: random wavefunctions but no delay for mixing, default for NELMDL
 entering main loop
       N       E                     dE             d eps       ncg     rms          rms(c)
DAV:   1     0.439843712508E+04    0.43984E+04   -0.26004E+05  1800   0.103E+03
DAV:   2    -0.428414800138E+03   -0.48269E+04   -0.46422E+04  2112   0.296E+02
DAV:   3    -0.947129988029E+03   -0.51872E+03   -0.51501E+03  2104   0.102E+02
DAV:   4    -0.957499316858E+03   -0.10369E+02   -0.10330E+02  2152   0.158E+01
DAV:   5    -0.957765219079E+03   -0.26590E+00   -0.26556E+00  2168   0.233E+00    0.871E+01
DAV:   6    -0.605433829966E+03    0.35233E+03   -0.71624E+02  2008   0.389E+01    0.282E+01
DAV:   7    -0.696259200859E+03   -0.90825E+02   -0.84030E+01  2056   0.125E+01    0.193E+01
DAV:   8    -0.766147760889E+03   -0.69889E+02   -0.30515E+01  2048   0.798E+00    0.110E+01
DAV:   9    -0.842977980823E+03   -0.76830E+02   -0.58141E+01  2056   0.904E+00    0.490E+00
DAV:  10    -0.856114704531E+03   -0.13137E+02   -0.77669E+00  2088   0.362E+00    0.353E+00
DAV:  11    -0.872453074768E+03   -0.16338E+02   -0.11008E+01  1888   0.405E+00    0.171E+00
DAV:  12    -0.874544898568E+03   -0.20918E+01   -0.10595E+00  1992   0.135E+00    0.919E-01
DAV:  13    -0.875567863474E+03   -0.10230E+01   -0.40431E-01  1904   0.856E-01    0.422E-01
DAV:  14    -0.875750440077E+03   -0.18258E+00   -0.71342E-02  1936   0.353E-01    0.251E-01
DAV:  15    -0.875767180133E+03   -0.16740E-01   -0.12266E-02  2024   0.225E-01    0.130E-01
DAV:  16    -0.875774656390E+03   -0.74763E-02   -0.43870E-03  2032   0.134E-01    0.879E-02
DAV:  17    -0.875779778625E+03   -0.51222E-02   -0.21314E-03  2168   0.103E-01    0.425E-02
DAV:  18    -0.875783637842E+03   -0.38592E-02   -0.12350E-03  2008   0.730E-02    0.446E-02
DAV:  19    -0.875784126810E+03   -0.48897E-03   -0.38670E-04  2040   0.443E-02    0.207E-02
DAV:  20    -0.875784553620E+03   -0.42681E-03   -0.22986E-04  1992   0.321E-02    0.160E-02
DAV:  21    -0.875784987694E+03   -0.43407E-03   -0.10434E-04  1824   0.231E-02    0.125E-02
DAV:  22    -0.875785086005E+03   -0.98311E-04   -0.62187E-05  1824   0.170E-02    0.469E-03
DAV:  23    -0.875785171785E+03   -0.85779E-04   -0.32397E-05  1736   0.122E-02    0.360E-03
DAV:  24    -0.875785239360E+03   -0.67575E-04   -0.13123E-05  1552   0.674E-03    0.265E-03
DAV:  25    -0.875785264551E+03   -0.25191E-04   -0.73386E-06  1552   0.481E-03    0.155E-03
DAV:  26    -0.875785278466E+03   -0.13916E-04   -0.47563E-06  1432   0.353E-03    0.136E-03
DAV:  27    -0.875785282529E+03   -0.40630E-05   -0.22410E-06  1480   0.222E-03
   1 F= -.87578528E+03 E0= -.87578528E+03  d E =-.875785E+03  mag=     0.0001
 BRION: g(F)=  0.154E+01 g(S)=  0.000E+00
 bond charge predicted
       N       E                     dE             d eps       ncg     rms          rms(c)
DAV:   1    -0.873464536451E+03    0.23207E+01   -0.36555E+02  1728   0.265E+01    0.390E+00
DAV:   2    -0.874407374741E+03   -0.94284E+00   -0.11936E+01  2000   0.388E+00    0.312E+00
DAV:   3    -0.874257650817E+03    0.14972E+00   -0.25856E-01  2128   0.887E-01    0.185E+00
DAV:   4    -0.874178982664E+03    0.78668E-01   -0.19859E-01  2288   0.891E-01    0.399E-01
DAV:   5    -0.874178942390E+03    0.40273E-04   -0.49390E-02  2096   0.420E-01    0.229E-01
DAV:   6    -0.874177380192E+03    0.15622E-02   -0.62537E-03  2112   0.188E-01    0.134E-01
DAV:   7    -0.874176170924E+03    0.12093E-02   -0.10278E-03  2336   0.131E-01    0.640E-02
DAV:   8    -0.874175574501E+03    0.59642E-03   -0.98502E-04  2304   0.138E-01    0.370E-02
DAV:   9    -0.874175469433E+03    0.10507E-03   -0.72880E-04  2072   0.116E-01    0.302E-02
DAV:  10    -0.874175571003E+03   -0.10157E-03   -0.67629E-04  2064   0.523E-02    0.324E-02
DAV:  11    -0.874175580799E+03   -0.97963E-05   -0.58962E-05  2016   0.166E-02
   2 F= -.87417558E+03 E0= -.87417558E+03  d E =0.160970E+01  mag=    -0.0000
 BRION: g(F)=  0.852E+02 g(S)=  0.000E+00 retain N=  1 mean eig= 0.07
 eig:   0.070
 bond charge predicted
       N       E                     dE             d eps       ncg     rms          rms(c)
DAV:   1    -0.875706134140E+03   -0.15306E+01   -0.11776E+02  1728   0.102E+01    0.406E+00
DAV:   2    -0.875948114636E+03   -0.24198E+00   -0.49818E+00  1872   0.209E+00    0.269E+00
DAV:   3    -0.875802308875E+03    0.14581E+00   -0.26797E-01  2224   0.690E-01    0.880E-01
DAV:   4    -0.875786318379E+03    0.15990E-01   -0.46637E-02  2176   0.355E-01    0.251E-01
DAV:   5    -0.875786343577E+03   -0.25198E-04   -0.79459E-03  2016   0.134E-01    0.139E-01
DAV:   6    -0.875786383574E+03   -0.39997E-04   -0.11261E-03  2264   0.993E-02    0.677E-02
DAV:   7    -0.875786748402E+03   -0.36483E-03   -0.63653E-04  2080   0.869E-02    0.370E-02
DAV:   8    -0.875787150697E+03   -0.40230E-03   -0.43434E-04  1936   0.611E-02    0.217E-02
DAV:   9    -0.875787528195E+03   -0.37750E-03   -0.27319E-04  2016   0.462E-02    0.130E-02
DAV:  10    -0.875787600316E+03   -0.72120E-04   -0.19652E-04  1976   0.283E-02    0.101E-02
DAV:  11    -0.875787663183E+03   -0.62868E-04   -0.12531E-04  1792   0.212E-02    0.650E-03
DAV:  12    -0.875787661122E+03    0.20613E-05   -0.59411E-05  1744   0.147E-02
   3 F= -.87578766E+03 E0= -.87578766E+03  d E =-.161208E+01  mag=     0.0000
 BRION: g(F)=  0.159E+02 g(S)=  0.000E+00 retain N=  1 mean eig= 0.06
 eig:   0.056
 bond charge predicted
       N       E                     dE             d eps       ncg     rms          rms(c)
DAV:   1    -0.866667016550E+03    0.91206E+01   -0.10214E+03  1832   0.413E+01    0.109E+01
DAV:   2    -0.872148963908E+03   -0.54819E+01   -0.74226E+01  2120   0.960E+00    0.722E+00
DAV:   3    -0.871208661667E+03    0.94030E+00   -0.27181E+00  2104   0.276E+00    0.331E+00
DAV:   4    -0.871075724711E+03    0.13294E+00   -0.67944E-01  2112   0.147E+00    0.155E+00
DAV:   5    -0.871022503390E+03    0.53221E-01   -0.14379E-01  2144   0.121E+00    0.687E-01
DAV:   6    -0.871017148509E+03    0.53549E-02   -0.76470E-02  2160   0.590E-01    0.429E-01
DAV:   7    -0.871011273594E+03    0.58749E-02   -0.89917E-03  2072   0.204E-01    0.246E-01
DAV:   8    -0.871004983262E+03    0.62903E-02   -0.58586E-03  2216   0.337E-01    0.104E-01
DAV:   9    -0.871003325555E+03    0.16577E-02   -0.38866E-03  2216   0.282E-01    0.105E-01
DAV:  10    -0.871003626142E+03   -0.30059E-03   -0.57365E-03  2176   0.230E-01    0.803E-02
DAV:  11    -0.871003695875E+03   -0.69733E-04   -0.14114E-03  2152   0.707E-02    0.457E-02
DAV:  12    -0.871003878860E+03   -0.18298E-03   -0.69645E-04  1952   0.432E-02    0.458E-02
DAV:  13    -0.871003953618E+03   -0.74758E-04   -0.79319E-05  2128   0.432E-02    0.223E-02
DAV:  14    -0.871003998954E+03   -0.45336E-04   -0.24473E-04  2080   0.333E-02    0.186E-02
DAV:  15    -0.871004025769E+03   -0.26815E-04   -0.21758E-05  1632   0.101E-02    0.140E-02
DAV:  16    -0.871004045251E+03   -0.19482E-04   -0.26058E-05  1768   0.106E-02    0.370E-03
DAV:  17    -0.871004050388E+03   -0.51373E-05   -0.85786E-06  1504   0.628E-03
   4 F= -.87100405E+03 E0= -.87100405E+03  d E =0.478361E+01  mag=    -0.0000
 BRION: g(F)=  0.271E+02 g(S)=  0.000E+00 retain N=  2 mean eig= 0.11
 eig:   0.109  0.109
 bond charge predicted
       N       E                     dE             d eps       ncg     rms          rms(c)
DAV:   1    -0.874331310069E+03   -0.33273E+01   -0.47872E+02  1728   0.344E+01    0.438E+00
DAV:   2    -0.875311930883E+03   -0.98062E+00   -0.15591E+01  2112   0.572E+00    0.326E+00
DAV:   3    -0.875037502392E+03    0.27443E+00   -0.48481E-01  2176   0.160E+00    0.203E+00
DAV:   4    -0.874857101138E+03    0.18040E+00   -0.29610E-01  2112   0.159E+00    0.726E-01
DAV:   5    -0.874838751155E+03    0.18350E-01   -0.17561E-01  2224   0.104E+00    0.400E-01
DAV:   6    -0.874830271605E+03    0.84796E-02   -0.60611E-02  2128   0.589E-01    0.318E-01
DAV:   7    -0.874822218849E+03    0.80528E-02   -0.66526E-03  2224   0.333E-01    0.200E-01
DAV:   8    -0.874817146660E+03    0.50722E-02   -0.40153E-03  2416   0.350E-01    0.771E-02
DAV:   9    -0.874816382689E+03    0.76397E-03   -0.43536E-03  2192   0.265E-01    0.704E-02
DAV:  10    -0.874816988374E+03   -0.60569E-03   -0.41874E-03  2000   0.124E-01    0.635E-02
DAV:  11    -0.874817047892E+03   -0.59518E-04   -0.28936E-04  2112   0.297E-02    0.415E-02
DAV:  12    -0.874817196948E+03   -0.14906E-03   -0.14418E-04  2096   0.301E-02    0.108E-02
DAV:  13    -0.874817275162E+03   -0.78215E-04   -0.40184E-05  1904   0.142E-02    0.965E-03
DAV:  14    -0.874817337130E+03   -0.61968E-04   -0.21104E-05  1552   0.125E-02    0.506E-03
DAV:  15    -0.874817355075E+03   -0.17945E-04   -0.13056E-05  1536   0.835E-03    0.561E-03
DAV:  16    -0.874817358455E+03   -0.33802E-05   -0.67518E-06  1488   0.538E-03
   5 F= -.87481736E+03 E0= -.87481736E+03  d E =-.381331E+01  mag=    -0.0000
 BRION: g(F)=  0.919E+01 g(S)=  0.000E+00 retain N=  3 mean eig= 0.74
 eig:   1.857  0.067  0.299
 bond charge predicted
       N       E                     dE             d eps       ncg     rms          rms(c)
DAV:   1    -0.876104684906E+03   -0.12873E+01   -0.84998E+01  1728   0.136E+01    0.214E+00
DAV:   2    -0.876245123594E+03   -0.14044E+00   -0.24119E+00  2112   0.197E+00    0.134E+00
DAV:   3    -0.876204781637E+03    0.40342E-01   -0.85676E-02  2160   0.653E-01    0.735E-01
DAV:   4    -0.876190375159E+03    0.14406E-01   -0.38604E-02  2160   0.523E-01    0.221E-01
DAV:   5    -0.876188954203E+03    0.14210E-02   -0.15549E-02  2192   0.315E-01    0.131E-01
DAV:   6    -0.876187988255E+03    0.96595E-03   -0.35516E-03  2128   0.143E-01    0.978E-02
DAV:   7    -0.876186965999E+03    0.10223E-02   -0.49196E-04  2224   0.117E-01    0.430E-02
DAV:   8    -0.876186483733E+03    0.48227E-03   -0.60016E-04  2280   0.130E-01    0.342E-02
DAV:   9    -0.876186509670E+03   -0.25937E-04   -0.74995E-04  1984   0.818E-02    0.204E-02
DAV:  10    -0.876186551303E+03   -0.41633E-04   -0.40506E-04  1880   0.389E-02    0.213E-02
DAV:  11    -0.876186613962E+03   -0.62659E-04   -0.25933E-04  1728   0.341E-02    0.889E-03
DAV:  12    -0.876186601819E+03    0.12143E-04   -0.25241E-04  1680   0.271E-02    0.661E-03
DAV:  13    -0.876186574886E+03    0.26933E-04   -0.11102E-04  1672   0.179E-02    0.368E-03
DAV:  14    -0.876186570759E+03    0.41270E-05   -0.18558E-05  1608   0.786E-03
   6 F= -.87618657E+03 E0= -.87618657E+03  d E =-.136921E+01  mag=     0.0000
 BRION: g(F)=  0.287E+01 g(S)=  0.000E+00 retain N=  3 mean eig= 1.44
 eig:   3.649  0.331  0.331
 bond charge predicted
       N       E                     dE             d eps       ncg     rms          rms(c)
DAV:   1    -0.875498923144E+03    0.68765E+00   -0.23955E+02  1728   0.198E+01    0.369E+00
DAV:   2    -0.875944853625E+03   -0.44593E+00   -0.70222E+00  1992   0.281E+00    0.246E+00
DAV:   3    -0.875825059189E+03    0.11979E+00   -0.32627E-01  2128   0.900E-01    0.114E+00
DAV:   4    -0.875807892112E+03    0.17167E-01   -0.98946E-02  2120   0.495E-01    0.372E-01
DAV:   5    -0.875807288791E+03    0.60332E-03   -0.12944E-02  2208   0.250E-01    0.156E-01
DAV:   6    -0.875806850076E+03    0.43871E-03   -0.25947E-03  2192   0.131E-01    0.956E-02
DAV:   7    -0.875806493073E+03    0.35700E-03   -0.69024E-04  2232   0.743E-02    0.517E-02
DAV:   8    -0.875806283916E+03    0.20916E-03   -0.41011E-04  2096   0.674E-02    0.303E-02
DAV:   9    -0.875806240524E+03    0.43392E-04   -0.18563E-04  2080   0.443E-02    0.256E-02
DAV:  10    -0.875806247188E+03   -0.66633E-05   -0.17374E-04  1872   0.380E-02    0.135E-02
DAV:  11    -0.875806281300E+03   -0.34113E-04   -0.96831E-05  1768   0.408E-02    0.105E-02
DAV:  12    -0.875806311036E+03   -0.29735E-04   -0.18421E-04  1848   0.244E-02    0.819E-03
DAV:  13    -0.875806275037E+03    0.35999E-04   -0.59343E-05  1632   0.135E-02    0.586E-03
DAV:  14    -0.875806288591E+03   -0.13555E-04   -0.16837E-05  1520   0.723E-03    0.306E-03
DAV:  15    -0.875806282416E+03    0.61754E-05   -0.23254E-05  1432   0.781E-03
   7 F= -.87580628E+03 E0= -.87580628E+03  d E =0.380288E+00  mag=     0.0000
 BRION: g(F)=  0.109E+02 g(S)=  0.000E+00 retain N=  4 mean eig= 2.40
 eig:   7.184  0.437  0.437  1.527
 bond charge predicted
       N       E                     dE             d eps       ncg     rms          rms(c)
DAV:   1    -0.876590033467E+03   -0.78374E+00   -0.69665E+01  1728   0.119E+01    0.224E+00
DAV:   2    -0.876726201697E+03   -0.13617E+00   -0.25258E+00  2128   0.204E+00    0.137E+00
DAV:   3    -0.876680724414E+03    0.45477E-01   -0.97616E-02  2144   0.564E-01    0.732E-01
DAV:   4    -0.876667788710E+03    0.12936E-01   -0.45513E-02  2128   0.393E-01    0.217E-01
DAV:   5    -0.876666722766E+03    0.10659E-02   -0.99726E-03  2288   0.239E-01    0.105E-01
DAV:   6    -0.876666530580E+03    0.19219E-03   -0.21102E-03  2088   0.875E-02    0.905E-02
DAV:   7    -0.876666197111E+03    0.33347E-03   -0.42336E-04  2008   0.564E-02    0.422E-02
DAV:   8    -0.876666163181E+03    0.33930E-04   -0.41855E-04  2024   0.729E-02    0.395E-02
DAV:   9    -0.876666233262E+03   -0.70081E-04   -0.27519E-04  2272   0.570E-02    0.248E-02
DAV:  10    -0.876666326859E+03   -0.93598E-04   -0.29707E-04  2032   0.325E-02    0.204E-02
DAV:  11    -0.876666371034E+03   -0.44174E-04   -0.98012E-05  1864   0.214E-02    0.749E-03
DAV:  12    -0.876666413261E+03   -0.42227E-04   -0.71649E-05  1728   0.175E-02    0.464E-03
DAV:  13    -0.876666424949E+03   -0.11689E-04   -0.96740E-05  1600   0.163E-02    0.543E-03
DAV:  14    -0.876666407581E+03    0.17369E-04   -0.26584E-05  1568   0.859E-03    0.430E-03
DAV:  15    -0.876666412376E+03   -0.47947E-05   -0.43983E-06  1440   0.444E-03
   8 F= -.87666641E+03 E0= -.87666641E+03  d E =-.860130E+00  mag=    -0.0000
 BRION: g(F)=  0.307E+00 g(S)=  0.000E+00 retain N=  2 mean eig= 3.94
 eig:   0.194  7.679
 bond charge predicted
       N       E                     dE             d eps       ncg     rms          rms(c)
DAV:   1    -0.876694817641E+03   -0.28410E-01   -0.14064E+01  1728   0.503E+00    0.706E-01
DAV:   2    -0.876719947232E+03   -0.25130E-01   -0.33040E-01  2144   0.753E-01    0.516E-01
DAV:   3    -0.876716264649E+03    0.36826E-02   -0.63066E-03  2160   0.170E-01    0.324E-01
DAV:   4    -0.876714246162E+03    0.20185E-02   -0.81160E-03  2184   0.199E-01    0.961E-02
DAV:   5    -0.876714115933E+03    0.13023E-03   -0.15706E-03  2192   0.890E-02    0.569E-02
DAV:   6    -0.876714098652E+03    0.17282E-04   -0.70535E-04  2032   0.534E-02    0.330E-02
DAV:   7    -0.876714081837E+03    0.16815E-04   -0.70761E-05  2128   0.211E-02    0.185E-02
DAV:   8    -0.876714082391E+03   -0.55442E-06   -0.60306E-05  2064   0.244E-02
   9 F= -.87671408E+03 E0= -.87671408E+03  d E =-.476700E-01  mag=     0.0000
 BRION: g(F)=  0.269E+00 g(S)=  0.000E+00 retain N=  2 mean eig= 0.17
 eig:   0.169  0.169
 bond charge predicted
       N       E                     dE             d eps       ncg     rms          rms(c)
DAV:   1    -0.876730417570E+03   -0.16336E-01   -0.10966E+01  1728   0.500E+00    0.587E-01
DAV:   2    -0.876748428530E+03   -0.18011E-01   -0.25961E-01  2144   0.750E-01    0.414E-01
DAV:   3    -0.876744928167E+03    0.35004E-02   -0.59239E-03  2144   0.160E-01    0.261E-01
DAV:   4    -0.876743036682E+03    0.18915E-02   -0.58759E-03  2080   0.160E-01    0.771E-02
DAV:   5    -0.876742989434E+03    0.47248E-04   -0.15885E-03  2224   0.827E-02    0.500E-02
DAV:   6    -0.876742950364E+03    0.39070E-04   -0.49972E-04  2064   0.482E-02    0.310E-02
DAV:   7    -0.876742924691E+03    0.25673E-04   -0.44770E-05  2032   0.201E-02    0.205E-02
DAV:   8    -0.876742902604E+03    0.22086E-04   -0.53288E-05  1920   0.254E-02    0.970E-03
DAV:   9    -0.876742902805E+03   -0.20108E-06   -0.23476E-05  1696   0.129E-02
  10 F= -.87674290E+03 E0= -.87674290E+03  d E =-.288204E-01  mag=    -0.0000
 BRION: g(F)=  0.285E+00 g(S)=  0.000E+00 retain N=  3 mean eig= 0.15
 eig:   0.198  0.198  0.064
 bond charge predicted
       N       E                     dE             d eps       ncg     rms          rms(c)
DAV:   1    -0.876775656860E+03   -0.32754E-01   -0.36014E+00  1728   0.286E+00    0.421E-01
DAV:   2    -0.876781516663E+03   -0.58598E-02   -0.10240E-01  2144   0.448E-01    0.279E-01
DAV:   3    -0.876779717762E+03    0.17989E-02   -0.33822E-03  2128   0.117E-01    0.155E-01
DAV:   4    -0.876779086401E+03    0.63136E-03   -0.16270E-03  2112   0.848E-02    0.456E-02
DAV:   5    -0.876779060301E+03    0.26101E-04   -0.50764E-04  2224   0.482E-02    0.240E-02
DAV:   6    -0.876779046886E+03    0.13415E-04   -0.10060E-04  2080   0.204E-02    0.174E-02
DAV:   7    -0.876779032751E+03    0.14135E-04   -0.69845E-06  1536   0.112E-02    0.862E-03
DAV:   8    -0.876779026842E+03    0.59096E-05   -0.20044E-05  1536   0.158E-02
  11 F= -.87677903E+03 E0= -.87677903E+03  d E =-.361240E-01  mag=     0.0000
 BRION: g(F)=  0.749E-01 g(S)=  0.000E+00 retain N=  2 mean eig= 0.38
 eig:   0.263  0.506
 bond charge predicted
       N       E                     dE             d eps       ncg     rms          rms(c)
DAV:   1    -0.876789913933E+03   -0.10881E-01   -0.94798E+00  1728   0.387E+00    0.541E-01
DAV:   2    -0.876804152226E+03   -0.14238E-01   -0.17441E-01  1984   0.490E-01    0.364E-01
DAV:   3    -0.876802548321E+03    0.16039E-02   -0.23366E-03  2160   0.982E-02    0.218E-01
DAV:   4    -0.876801858353E+03    0.68997E-03   -0.30384E-03  2272   0.112E-01    0.485E-02
DAV:   5    -0.876801863803E+03   -0.54505E-05   -0.60670E-04  2128   0.466E-02    0.297E-02
DAV:   6    -0.876801853818E+03    0.99850E-05   -0.76837E-05  2096   0.160E-02
  12 F= -.87680185E+03 E0= -.87680185E+03  d E =-.228270E-01  mag=     0.0000
 BRION: g(F)=  0.334E+00 g(S)=  0.000E+00 retain N=  3 mean eig= 1.26
 eig:   3.365  0.050  0.369
 bond charge predicted
       N       E                     dE             d eps       ncg     rms          rms(c)
DAV:   1    -0.876824957387E+03   -0.23094E-01   -0.22203E+00  1760   0.186E+00    0.343E-01
DAV:   2    -0.876828822937E+03   -0.38656E-02   -0.60865E-02  2096   0.283E-01    0.227E-01
DAV:   3    -0.876827891396E+03    0.93154E-03   -0.19070E-03  2144   0.753E-02    0.121E-01
DAV:   4    -0.876827609633E+03    0.28176E-03   -0.85780E-04  2192   0.560E-02    0.348E-02
DAV:   5    -0.876827600941E+03    0.86912E-05   -0.21544E-04  2096   0.298E-02    0.161E-02
DAV:   6    -0.876827595573E+03    0.53687E-05   -0.39001E-05  1968   0.123E-02
  13 F= -.87682760E+03 E0= -.87682760E+03  d E =-.257418E-01  mag=     0.0000
 BRION: g(F)=  0.434E-01 g(S)=  0.000E+00 retain N=  1 mean eig= 0.11
 eig:   0.109
 bond charge predicted
       N       E                     dE             d eps       ncg     rms          rms(c)
DAV:   1    -0.876842750968E+03   -0.15150E-01   -0.10251E+01  1728   0.396E+00    0.493E-01
DAV:   2    -0.876856363544E+03   -0.13613E-01   -0.16049E-01  2064   0.464E-01    0.288E-01
DAV:   3    -0.876855469167E+03    0.89438E-03   -0.23774E-03  2144   0.840E-02    0.161E-01
DAV:   4    -0.876855270173E+03    0.19899E-03   -0.13919E-03  2080   0.696E-02    0.406E-02
DAV:   5    -0.876855282711E+03   -0.12538E-04   -0.31938E-04  2128   0.323E-02    0.263E-02
DAV:   6    -0.876855279269E+03    0.34420E-05   -0.82542E-05  2032   0.179E-02
  14 F= -.87685528E+03 E0= -.87685528E+03  d E =-.276837E-01  mag=    -0.0000
 BRION: g(F)=  0.134E+00 g(S)=  0.000E+00 retain N=  2 mean eig= 0.17
 eig:   0.173  0.173
 bond charge predicted
       N       E                     dE             d eps       ncg     rms          rms(c)
DAV:   1    -0.876865928289E+03   -0.10646E-01   -0.95855E-01  1760   0.117E+00    0.273E-01
DAV:   2    -0.876867710093E+03   -0.17818E-02   -0.31641E-02  2112   0.196E-01    0.189E-01
DAV:   3    -0.876867159437E+03    0.55066E-03   -0.10500E-03  2160   0.538E-02    0.104E-01
DAV:   4    -0.876866977860E+03    0.18158E-03   -0.58299E-04  2224   0.418E-02    0.277E-02
DAV:   5    -0.876866977844E+03    0.15367E-07   -0.12898E-04  2128   0.202E-02    0.119E-02
DAV:   6    -0.876866976136E+03    0.17084E-05   -0.15125E-05  1528   0.725E-03
  15 F= -.87686698E+03 E0= -.87686698E+03  d E =-.116969E-01  mag=    -0.0000
 BRION: g(F)=  0.464E-01 g(S)=  0.000E+00 retain N=  1 mean eig= 0.11
 eig:   0.114
 bond charge predicted
       N       E                     dE             d eps       ncg     rms          rms(c)
DAV:   1    -0.876877828505E+03   -0.10851E-01   -0.78485E+00  1728   0.352E+00    0.419E-01
DAV:   2    -0.876888863374E+03   -0.11035E-01   -0.12912E-01  2032   0.436E-01    0.254E-01
DAV:   3    -0.876888068988E+03    0.79439E-03   -0.15898E-03  2144   0.757E-02    0.150E-01
DAV:   4    -0.876887709154E+03    0.35983E-03   -0.11368E-03  2112   0.780E-02    0.320E-02
DAV:   5    -0.876887728114E+03   -0.18960E-04   -0.44602E-04  2128   0.383E-02    0.270E-02
DAV:   6    -0.876887716202E+03    0.11912E-04   -0.59049E-05  2112   0.154E-02    0.155E-02
DAV:   7    -0.876887705809E+03    0.10392E-04   -0.38079E-06  1472   0.105E-02    0.779E-03
DAV:   8    -0.876887701553E+03    0.42567E-05   -0.97070E-06  1472   0.128E-02
  16 F= -.87688770E+03 E0= -.87688770E+03  d E =-.207254E-01  mag=     0.0000
 BRION: g(F)=  0.129E+00 g(S)=  0.000E+00 retain N=  2 mean eig= 0.80
 eig:   0.057  1.546
 bond charge predicted
       N       E                     dE             d eps       ncg     rms          rms(c)
DAV:   1    -0.876898472831E+03   -0.10767E-01   -0.87977E-01  1760   0.134E+00    0.226E-01
DAV:   2    -0.876900166653E+03   -0.16938E-02   -0.27575E-02  2048   0.217E-01    0.171E-01
DAV:   3    -0.876899657194E+03    0.50946E-03   -0.70686E-04  2160   0.586E-02    0.103E-01
DAV:   4    -0.876899377827E+03    0.27937E-03   -0.78616E-04  2192   0.596E-02    0.251E-02
DAV:   5    -0.876899369883E+03    0.79440E-05   -0.22597E-04  2096   0.322E-02    0.153E-02
DAV:   6    -0.876899365066E+03    0.48167E-05   -0.43025E-05  1784   0.125E-02
  17 F= -.87689937E+03 E0= -.87689937E+03  d E =-.116635E-01  mag=    -0.0000
 BRION: g(F)=  0.366E-01 g(S)=  0.000E+00 retain N=  1 mean eig= 0.11
 eig:   0.110
 bond charge predicted
       N       E                     dE             d eps       ncg     rms          rms(c)
DAV:   1    -0.876907925746E+03   -0.85559E-02   -0.65965E+00  1728   0.319E+00    0.423E-01
DAV:   2    -0.876917403300E+03   -0.94776E-02   -0.11428E-01  2080   0.398E-01    0.237E-01
DAV:   3    -0.876916702742E+03    0.70056E-03   -0.17071E-03  2144   0.725E-02    0.137E-01
DAV:   4    -0.876916487510E+03    0.21523E-03   -0.10625E-03  2088   0.658E-02    0.331E-02
DAV:   5    -0.876916495472E+03   -0.79619E-05   -0.29404E-04  1976   0.341E-02    0.216E-02
DAV:   6    -0.876916488987E+03    0.64845E-05   -0.46936E-05  1872   0.137E-02
  18 F= -.87691649E+03 E0= -.87691649E+03  d E =-.171239E-01  mag=    -0.0000
 BRION: g(F)=  0.928E-01 g(S)=  0.000E+00 retain N=  2 mean eig= 0.91
 eig:   0.080  1.734
 bond charge predicted
       N       E                     dE             d eps       ncg     rms          rms(c)
DAV:   1    -0.876926200590E+03   -0.97051E-02   -0.81348E-01  1776   0.133E+00    0.204E-01
DAV:   2    -0.876927608322E+03   -0.14077E-02   -0.23244E-02  2080   0.212E-01    0.145E-01
DAV:   3    -0.876927186419E+03    0.42190E-03   -0.59904E-04  2160   0.555E-02    0.864E-02
DAV:   4    -0.876926974421E+03    0.21200E-03   -0.57743E-04  2192   0.556E-02    0.214E-02
DAV:   5    -0.876926967603E+03    0.68185E-05   -0.19898E-04  1992   0.300E-02    0.136E-02
DAV:   6    -0.876926961378E+03    0.62248E-05   -0.33620E-05  1664   0.117E-02
  19 F= -.87692696E+03 E0= -.87692696E+03  d E =-.104724E-01  mag=     0.0000
 BRION: g(F)=  0.261E-01 g(S)=  0.000E+00 retain N=  1 mean eig= 0.13
 eig:   0.134
 bond charge predicted
       N       E                     dE             d eps       ncg     rms          rms(c)
DAV:   1    -0.876935062016E+03   -0.80944E-02   -0.55138E+00  1728   0.283E+00    0.372E-01
DAV:   2    -0.876942486504E+03   -0.74245E-02   -0.88505E-02  2048   0.334E-01    0.217E-01
DAV:   3    -0.876942001009E+03    0.48550E-03   -0.12504E-03  2144   0.585E-02    0.121E-01
DAV:   4    -0.876941908708E+03    0.92301E-04   -0.71610E-04  1888   0.495E-02    0.270E-02
DAV:   5    -0.876941914434E+03   -0.57267E-05   -0.20279E-04  1792   0.256E-02    0.182E-02
DAV:   6    -0.876941910101E+03    0.43336E-05   -0.49309E-05  1584   0.142E-02
  20 F= -.87694191E+03 E0= -.87694191E+03  d E =-.149487E-01  mag=     0.0000
 BRION: g(F)=  0.933E-01 g(S)=  0.000E+00 retain N=  2 mean eig= 0.29
 eig:   0.022  0.550
 bond charge predicted
       N       E                     dE             d eps       ncg     rms          rms(c)
DAV:   1    -0.876948711248E+03   -0.67968E-02   -0.50199E-01  1776   0.833E-01    0.203E-01
DAV:   2    -0.876949713173E+03   -0.10019E-02   -0.17403E-02  2032   0.142E-01    0.152E-01
DAV:   3    -0.876949387173E+03    0.32600E-03   -0.49719E-04  2104   0.370E-02    0.876E-02
DAV:   4    -0.876949263286E+03    0.12389E-03   -0.45379E-04  2008   0.339E-02    0.196E-02
DAV:   5    -0.876949265226E+03   -0.19397E-05   -0.90239E-05  1720   0.174E-02
  21 F= -.87694927E+03 E0= -.87694927E+03  d E =-.735513E-02  mag=    -0.0000
 BRION: g(F)=  0.294E-01 g(S)=  0.000E+00 retain N=  1 mean eig= 0.10
 eig:   0.100
 bond charge predicted
       N       E                     dE             d eps       ncg     rms          rms(c)
DAV:   1    -0.876954222185E+03   -0.49589E-02   -0.48820E+00  1728   0.279E+00    0.370E-01
DAV:   2    -0.876961216349E+03   -0.69942E-02   -0.87660E-02  2080   0.369E-01    0.214E-01
DAV:   3    -0.876960536580E+03    0.67977E-03   -0.14729E-03  2144   0.788E-02    0.125E-01
DAV:   4    -0.876960258681E+03    0.27790E-03   -0.90117E-04  2112   0.723E-02    0.310E-02
DAV:   5    -0.876960258396E+03    0.28593E-06   -0.36938E-04  1976   0.402E-02    0.227E-02
DAV:   6    -0.876960244683E+03    0.13713E-04   -0.62639E-05  1936   0.164E-02    0.144E-02
DAV:   7    -0.876960237059E+03    0.76237E-05   -0.11172E-05  1360   0.110E-02
  22 F= -.87696024E+03 E0= -.87696024E+03  d E =-.109718E-01  mag=     0.0000
 BRION: g(F)=  0.953E-01 g(S)=  0.000E+00 retain N=  2 mean eig= 0.40
 eig:   0.039  0.767
 bond charge predicted
       N       E                     dE             d eps       ncg     rms          rms(c)
DAV:   1    -0.876969060146E+03   -0.88155E-02   -0.68953E-01  1728   0.117E+00    0.209E-01
DAV:   2    -0.876970182150E+03   -0.11220E-02   -0.20924E-02  2088   0.191E-01    0.138E-01
DAV:   3    -0.876969782725E+03    0.39943E-03   -0.72210E-04  2104   0.585E-02    0.776E-02
DAV:   4    -0.876969638567E+03    0.14416E-03   -0.46375E-04  1992   0.488E-02    0.218E-02
DAV:   5    -0.876969628513E+03    0.10053E-04   -0.19106E-04  1792   0.313E-02    0.120E-02
DAV:   6    -0.876969616859E+03    0.11654E-04   -0.56457E-05  1720   0.154E-02    0.981E-03
DAV:   7    -0.876969636902E+03   -0.20042E-04   -0.63848E-05  1552   0.159E-02    0.408E-03
DAV:   8    -0.876969624104E+03    0.12798E-04   -0.96299E-05  1552   0.184E-02    0.382E-03
DAV:   9    -0.876969621389E+03    0.27150E-05   -0.74572E-05  1536   0.153E-02
  23 F= -.87696962E+03 E0= -.87696962E+03  d E =-.938433E-02  mag=     0.0000
 BRION: g(F)=  0.186E-01 g(S)=  0.000E+00 retain N=  1 mean eig= 0.14
 eig:   0.138
 bond charge predicted
       N       E                     dE             d eps       ncg     rms          rms(c)
DAV:   1    -0.876976613558E+03   -0.69895E-02   -0.41049E+00  1728   0.248E+00    0.333E-01
DAV:   2    -0.876982401082E+03   -0.57875E-02   -0.68488E-02  2032   0.308E-01    0.185E-01
DAV:   3    -0.876982029222E+03    0.37186E-03   -0.88494E-04  2160   0.566E-02    0.107E-01
DAV:   4    -0.876981910094E+03    0.11913E-03   -0.57539E-04  2096   0.526E-02    0.232E-02
DAV:   5    -0.876981919218E+03   -0.91232E-05   -0.20705E-04  2032   0.273E-02    0.179E-02
DAV:   6    -0.876981914099E+03    0.51183E-05   -0.19949E-05  1416   0.879E-03
  24 F= -.87698191E+03 E0= -.87698191E+03  d E =-.122927E-01  mag=    -0.0000
 BRION: g(F)=  0.583E-01 g(S)=  0.000E+00 retain N=  2 mean eig= 0.51
 eig:   0.070  0.959
 bond charge predicted
       N       E                     dE             d eps       ncg     rms          rms(c)
DAV:   1    -0.876986825816E+03   -0.49066E-02   -0.29471E-01  1744   0.807E-01    0.134E-01
DAV:   2    -0.876987388326E+03   -0.56251E-03   -0.97801E-03  2080   0.138E-01    0.114E-01
DAV:   3    -0.876987191020E+03    0.19731E-03   -0.24728E-04  2160   0.358E-02    0.733E-02
DAV:   4    -0.876987049547E+03    0.14147E-03   -0.38872E-04  2144   0.435E-02    0.170E-02
DAV:   5    -0.876987045016E+03    0.45308E-05   -0.10463E-04  2048   0.224E-02    0.104E-02
DAV:   6    -0.876987042820E+03    0.21955E-05   -0.22954E-05  1472   0.885E-03
  25 F= -.87698704E+03 E0= -.87698704E+03  d E =-.512872E-02  mag=    -0.0000
 BRION: g(F)=  0.215E-01 g(S)=  0.000E+00 retain N=  1 mean eig= 0.10
 eig:   0.099
 bond charge predicted
       N       E                     dE             d eps       ncg     rms          rms(c)
DAV:   1    -0.876991490532E+03   -0.44455E-02   -0.38029E+00  1728   0.232E+00    0.335E-01
DAV:   2    -0.876996767115E+03   -0.52766E-02   -0.65890E-02  2064   0.288E-01    0.194E-01
DAV:   3    -0.876996327159E+03    0.43996E-03   -0.11179E-03  2144   0.574E-02    0.106E-01
DAV:   4    -0.876996233416E+03    0.93743E-04   -0.58380E-04  2016   0.476E-02    0.265E-02
DAV:   5    -0.876996234447E+03   -0.10311E-05   -0.16777E-04  1824   0.258E-02    0.168E-02
DAV:   6    -0.876996227561E+03    0.68862E-05   -0.41056E-05  1712   0.135E-02
  26 F= -.87699623E+03 E0= -.87699623E+03  d E =-.918474E-02  mag=     0.0000
 BRION: g(F)=  0.760E-01 g(S)=  0.000E+00 retain N=  2 mean eig= 0.54
 eig:   0.046  1.038
 bond charge predicted
       N       E                     dE             d eps       ncg     rms          rms(c)
DAV:   1    -0.877002791875E+03   -0.65574E-02   -0.45629E-01  1728   0.915E-01    0.183E-01
DAV:   2    -0.877003550454E+03   -0.75858E-03   -0.14729E-02  2112   0.155E-01    0.127E-01
DAV:   3    -0.877003260953E+03    0.28950E-03   -0.52577E-04  2160   0.461E-02    0.720E-02
DAV:   4    -0.877003147020E+03    0.11393E-03   -0.31563E-04  2144   0.363E-02    0.199E-02
DAV:   5    -0.877003141001E+03    0.60196E-05   -0.99582E-05  1952   0.228E-02
  27 F= -.87700314E+03 E0= -.87700314E+03  d E =-.691344E-02  mag=    -0.0000
 BRION: g(F)=  0.148E-01 g(S)=  0.000E+00 retain N=  1 mean eig= 0.12
 eig:   0.123
 bond charge predicted
       N       E                     dE             d eps       ncg     rms          rms(c)
DAV:   1    -0.877009572849E+03   -0.64258E-02   -0.32380E+00  1728   0.216E+00    0.312E-01
DAV:   2    -0.877014209251E+03   -0.46364E-02   -0.54470E-02  2000   0.266E-01    0.169E-01
DAV:   3    -0.877013960556E+03    0.24870E-03   -0.65882E-04  2144   0.458E-02    0.967E-02
DAV:   4    -0.877013927845E+03    0.32710E-04   -0.45250E-04  1904   0.397E-02    0.216E-02
DAV:   5    -0.877013936249E+03   -0.84037E-05   -0.11267E-04  1992   0.194E-02    0.138E-02
DAV:   6    -0.877013934144E+03    0.21052E-05   -0.12512E-05  1312   0.724E-03
  28 F= -.87701393E+03 E0= -.87701393E+03  d E =-.107931E-01  mag=    -0.0000
 BRION: g(F)=  0.362E-01 g(S)=  0.000E+00 retain N=  2 mean eig= 0.13
 eig:   0.002  0.259
 bond charge predicted
       N       E                     dE             d eps       ncg     rms          rms(c)
DAV:   1    -0.877017463807E+03   -0.35276E-02   -0.25261E-01  1728   0.610E-01    0.136E-01
DAV:   2    -0.877017942422E+03   -0.47861E-03   -0.75973E-03  2024   0.951E-02    0.919E-02
DAV:   3    -0.877017822643E+03    0.11978E-03   -0.20916E-04  2072   0.255E-02    0.509E-02
DAV:   4    -0.877017790201E+03    0.32442E-04   -0.18425E-04  1832   0.234E-02    0.132E-02
DAV:   5    -0.877017789999E+03    0.20249E-06   -0.38920E-05  1504   0.122E-02
  29 F= -.87701779E+03 E0= -.87701779E+03  d E =-.385585E-02  mag=     0.0000
 BRION: g(F)=  0.162E-01 g(S)=  0.000E+00 retain N=  1 mean eig= 0.12
 eig:   0.115
 bond charge predicted
       N       E                     dE             d eps       ncg     rms          rms(c)
DAV:   1    -0.877022826437E+03   -0.50362E-02   -0.28837E+00  1728   0.210E+00    0.285E-01
DAV:   2    -0.877026985133E+03   -0.41587E-02   -0.50054E-02  2064   0.271E-01    0.163E-01
DAV:   3    -0.877026673276E+03    0.31186E-03   -0.67764E-04  2144   0.530E-02    0.949E-02
DAV:   4    -0.877026567389E+03    0.10589E-03   -0.50406E-04  2064   0.506E-02    0.212E-02
DAV:   5    -0.877026573135E+03   -0.57463E-05   -0.17905E-04  1952   0.252E-02    0.172E-02
DAV:   6    -0.877026567985E+03    0.51497E-05   -0.24630E-05  1600   0.101E-02
  30 F= -.87702657E+03 E0= -.87702657E+03  d E =-.877799E-02  mag=     0.0000
 BRION: g(F)=  0.480E-01 g(S)=  0.000E+00 retain N=  2 mean eig= 0.54
 eig:   0.046  1.036
 bond charge predicted
       N       E                     dE             d eps       ncg     rms          rms(c)
DAV:   1    -0.877030938623E+03   -0.43655E-02   -0.25931E-01  1728   0.755E-01    0.128E-01
DAV:   2    -0.877031388232E+03   -0.44961E-03   -0.82369E-03  2080   0.128E-01    0.100E-01
DAV:   3    -0.877031222852E+03    0.16538E-03   -0.24390E-04  2152   0.344E-02    0.618E-02
DAV:   4    -0.877031130242E+03    0.92610E-04   -0.25322E-04  2088   0.334E-02    0.154E-02
DAV:   5    -0.877031127092E+03    0.31501E-05   -0.70319E-05  2064   0.189E-02
  31 F= -.87703113E+03 E0= -.87703113E+03  d E =-.455911E-02  mag=     0.0000
 BRION: g(F)=  0.131E-01 g(S)=  0.000E+00 retain N=  1 mean eig= 0.11
 eig:   0.112
 bond charge predicted
       N       E                     dE             d eps       ncg     rms          rms(c)
DAV:   1    -0.877036556536E+03   -0.54263E-02   -0.27268E+00  1728   0.199E+00    0.286E-01
DAV:   2    -0.877040420695E+03   -0.38642E-02   -0.46201E-02  2000   0.244E-01    0.159E-01
DAV:   3    -0.877040173635E+03    0.24706E-03   -0.58553E-04  2144   0.464E-02    0.899E-02
DAV:   4    -0.877040117876E+03    0.55759E-04   -0.42135E-04  2032   0.431E-02    0.202E-02
DAV:   5    -0.877040120690E+03   -0.28135E-05   -0.12901E-04  2096   0.214E-02    0.147E-02
DAV:   6    -0.877040116828E+03    0.38618E-05   -0.14223E-05  1400   0.748E-03
  32 F= -.87704012E+03 E0= -.87704012E+03  d E =-.898974E-02  mag=     0.0000
 BRION: g(F)=  0.324E-01 g(S)=  0.000E+00 retain N=  2 mean eig= 0.46
 eig:   0.056  0.874
 bond charge predicted
       N       E                     dE             d eps       ncg     rms          rms(c)
DAV:   1    -0.877043664201E+03   -0.35435E-02   -0.21769E-01  1728   0.688E-01    0.113E-01
DAV:   2    -0.877044016076E+03   -0.35188E-03   -0.64092E-03  2096   0.114E-01    0.852E-02
DAV:   3    -0.877043889729E+03    0.12635E-03   -0.19327E-04  2160   0.317E-02    0.521E-02
DAV:   4    -0.877043819932E+03    0.69798E-04   -0.18150E-04  2112   0.300E-02    0.136E-02
DAV:   5    -0.877043816642E+03    0.32892E-05   -0.57364E-05  2048   0.177E-02
  33 F= -.87704382E+03 E0= -.87704382E+03  d E =-.369981E-02  mag=    -0.0000
 BRION: g(F)=  0.126E-01 g(S)=  0.000E+00 retain N=  1 mean eig= 0.12
 eig:   0.117
 bond charge predicted
       N       E                     dE             d eps       ncg     rms          rms(c)
DAV:   1    -0.877048083452E+03   -0.42635E-02   -0.25007E+00  1728   0.185E+00    0.287E-01
DAV:   2    -0.877051889038E+03   -0.38056E-02   -0.45042E-02  2000   0.226E-01    0.155E-01
DAV:   3    -0.877051674331E+03    0.21471E-03   -0.57281E-04  2144   0.383E-02    0.880E-02
DAV:   4    -0.877051653452E+03    0.20880E-04   -0.37839E-04  1968   0.337E-02    0.204E-02
DAV:   5    -0.877051657690E+03   -0.42387E-05   -0.78045E-05  2032   0.162E-02
  34 F= -.87705166E+03 E0= -.87705166E+03  d E =-.784105E-02  mag=    -0.0000
 BRION: g(F)=  0.427E-01 g(S)=  0.000E+00 retain N=  2 mean eig= 0.39
 eig:   0.041  0.729
 bond charge predicted
       N       E                     dE             d eps       ncg     rms          rms(c)
DAV:   1    -0.877054990004E+03   -0.33366E-02   -0.20243E-01  1728   0.538E-01    0.131E-01
DAV:   2    -0.877055403898E+03   -0.41389E-03   -0.67685E-03  2032   0.872E-02    0.917E-02
DAV:   3    -0.877055287704E+03    0.11619E-03   -0.17669E-04  2080   0.241E-02    0.513E-02
DAV:   4    -0.877055248849E+03    0.38855E-04   -0.18263E-04  1888   0.230E-02    0.123E-02
DAV:   5    -0.877055248376E+03    0.47305E-06   -0.35097E-05  1728   0.111E-02
  35 F= -.87705525E+03 E0= -.87705525E+03  d E =-.359069E-02  mag=    -0.0000
 BRION: g(F)=  0.120E-01 g(S)=  0.000E+00 retain N=  1 mean eig= 0.11
 eig:   0.106
 bond charge predicted
       N       E                     dE             d eps       ncg     rms          rms(c)
DAV:   1    -0.877059875309E+03   -0.46265E-02   -0.23733E+00  1728   0.188E+00    0.271E-01
DAV:   2    -0.877063342754E+03   -0.34674E-02   -0.41520E-02  2032   0.235E-01    0.151E-01
DAV:   3    -0.877063112583E+03    0.23017E-03   -0.53646E-04  2144   0.448E-02    0.866E-02
DAV:   4    -0.877063066183E+03    0.46400E-04   -0.40425E-04  2000   0.389E-02    0.191E-02
DAV:   5    -0.877063070637E+03   -0.44536E-05   -0.10648E-04  2128   0.189E-02    0.134E-02
DAV:   6    -0.877063067982E+03    0.26546E-05   -0.98188E-06  1384   0.657E-03
  36 F= -.87706307E+03 E0= -.87706307E+03  d E =-.781961E-02  mag=     0.0000
 BRION: g(F)=  0.287E-01 g(S)=  0.000E+00 retain N=  2 mean eig= 0.17
 eig:   0.006  0.340
 bond charge predicted
       N       E                     dE             d eps       ncg     rms          rms(c)
DAV:   1    -0.877066267218E+03   -0.31966E-02   -0.21713E-01  1728   0.617E-01    0.123E-01
DAV:   2    -0.877066625929E+03   -0.35871E-03   -0.64094E-03  2128   0.100E-01    0.818E-02
DAV:   3    -0.877066515620E+03    0.11031E-03   -0.19699E-04  2160   0.274E-02    0.463E-02
DAV:   4    -0.877066477987E+03    0.37633E-04   -0.14590E-04  2000   0.227E-02    0.129E-02
DAV:   5    -0.877066477269E+03    0.71782E-06   -0.32150E-05  1744   0.124E-02
  37 F= -.87706648E+03 E0= -.87706648E+03  d E =-.340929E-02  mag=     0.0000
 BRION: g(F)=  0.101E-01 g(S)=  0.000E+00 retain N=  1 mean eig= 0.14
 eig:   0.139
 bond charge predicted
       N       E                     dE             d eps       ncg     rms          rms(c)
DAV:   1    -0.877071291406E+03   -0.48134E-02   -0.21429E+00  1728   0.175E+00    0.256E-01
DAV:   2    -0.877074410328E+03   -0.31189E-02   -0.36360E-02  2000   0.215E-01    0.141E-01
DAV:   3    -0.877074238585E+03    0.17174E-03   -0.39024E-04  2144   0.386E-02    0.808E-02
DAV:   4    -0.877074205630E+03    0.32956E-04   -0.32318E-04  2000   0.373E-02    0.172E-02
DAV:   5    -0.877074209247E+03   -0.36177E-05   -0.94399E-05  2128   0.175E-02
  38 F= -.87707421E+03 E0= -.87707421E+03  d E =-.773198E-02  mag=    -0.0000
 BRION: g(F)=  0.259E-01 g(S)=  0.000E+00 retain N=  2 mean eig= 0.32
 eig:   0.045  0.599
 bond charge predicted
       N       E                     dE             d eps       ncg     rms          rms(c)
DAV:   1    -0.877076531887E+03   -0.23263E-02   -0.11468E-01  1728   0.489E-01    0.900E-02
DAV:   2    -0.877076753999E+03   -0.22211E-03   -0.37476E-03  2000   0.835E-02    0.740E-02
DAV:   3    -0.877076681207E+03    0.72791E-04   -0.91629E-05  2160   0.214E-02    0.466E-02
DAV:   4    -0.877076637581E+03    0.43626E-04   -0.16062E-04  1968   0.246E-02    0.111E-02
DAV:   5    -0.877076636667E+03    0.91465E-06   -0.29106E-05  1792   0.120E-02
  39 F= -.87707664E+03 E0= -.87707664E+03  d E =-.242742E-02  mag=    -0.0000
 BRION: g(F)=  0.115E-01 g(S)=  0.000E+00 retain N=  1 mean eig= 0.09
 eig:   0.095
 bond charge predicted
       N       E                     dE             d eps       ncg     rms          rms(c)
DAV:   1    -0.877080381246E+03   -0.37437E-02   -0.20617E+00  1728   0.170E+00    0.269E-01
DAV:   2    -0.877083472538E+03   -0.30913E-02   -0.37702E-02  2032   0.216E-01    0.145E-01
DAV:   3    -0.877083257313E+03    0.21523E-03   -0.53822E-04  2144   0.420E-02    0.821E-02
DAV:   4    -0.877083221687E+03    0.35626E-04   -0.33284E-04  2048   0.350E-02    0.199E-02
DAV:   5    -0.877083225675E+03   -0.39883E-05   -0.90127E-05  2144   0.182E-02
  40 F= -.87708323E+03 E0= -.87708323E+03  d E =-.658901E-02  mag=     0.0000
 BRION: g(F)=  0.300E-01 g(S)=  0.000E+00 retain N=  2 mean eig= 0.55
 eig:   0.056  1.050
 bond charge predicted
       N       E                     dE             d eps       ncg     rms          rms(c)
DAV:   1    -0.877086389738E+03   -0.31681E-02   -0.20652E-01  1728   0.641E-01    0.116E-01
DAV:   2    -0.877086720607E+03   -0.33087E-03   -0.59778E-03  2096   0.104E-01    0.759E-02
DAV:   3    -0.877086614259E+03    0.10635E-03   -0.19401E-04  2144   0.297E-02    0.427E-02
DAV:   4    -0.877086575709E+03    0.38550E-04   -0.13440E-04  2080   0.239E-02    0.119E-02
DAV:   5    -0.877086574227E+03    0.14822E-05   -0.36611E-05  1888   0.136E-02
  41 F= -.87708657E+03 E0= -.87708657E+03  d E =-.334855E-02  mag=     0.0000
 BRION: g(F)=  0.863E-02 g(S)=  0.000E+00 retain N=  1 mean eig= 0.14
 eig:   0.140
 bond charge predicted
       N       E                     dE             d eps       ncg     rms          rms(c)
DAV:   1    -0.877091488223E+03   -0.49125E-02   -0.18901E+00  1728   0.160E+00    0.247E-01
DAV:   2    -0.877094197645E+03   -0.27094E-02   -0.31174E-02  1968   0.191E-01    0.134E-01
DAV:   3    -0.877094079572E+03    0.11807E-03   -0.31414E-04  2144   0.318E-02    0.764E-02
DAV:   4    -0.877094081179E+03   -0.16064E-05   -0.27139E-04  1872   0.271E-02    0.169E-02
DAV:   5    -0.877094084015E+03   -0.28361E-05   -0.49246E-05  1744   0.121E-02
  42 F= -.87709408E+03 E0= -.87709408E+03  d E =-.750979E-02  mag=     0.0000
 BRION: g(F)=  0.142E-01 g(S)=  0.000E+00 retain N=  2 mean eig= 0.11
 eig:   0.114  0.114
 bond charge predicted
       N       E                     dE             d eps       ncg     rms          rms(c)
DAV:   1    -0.877095934895E+03   -0.18537E-02   -0.11111E-01  1728   0.397E-01    0.915E-02
DAV:   2    -0.877096128783E+03   -0.19389E-03   -0.30773E-03  2048   0.605E-02    0.624E-02
DAV:   3    -0.877096081667E+03    0.47117E-04   -0.73186E-05  1840   0.155E-02    0.356E-02
DAV:   4    -0.877096068162E+03    0.13505E-04   -0.83197E-05  1728   0.144E-02    0.918E-03
DAV:   5    -0.877096068227E+03   -0.65666E-07   -0.12476E-05  1456   0.719E-03
  43 F= -.87709607E+03 E0= -.87709607E+03  d E =-.198421E-02  mag=     0.0000
 BRION: g(F)=  0.991E-02 g(S)=  0.000E+00 retain N=  1 mean eig= 0.11
 eig:   0.108
 bond charge predicted
       N       E                     dE             d eps       ncg     rms          rms(c)
DAV:   1    -0.877099953117E+03   -0.38850E-02   -0.16873E+00  1728   0.155E+00    0.230E-01
DAV:   2    -0.877102475880E+03   -0.25228E-02   -0.29484E-02  1968   0.194E-01    0.126E-01
DAV:   3    -0.877102329140E+03    0.14674E-03   -0.31161E-04  2144   0.341E-02    0.727E-02
DAV:   4    -0.877102299985E+03    0.29155E-04   -0.25772E-04  1968   0.332E-02    0.144E-02
DAV:   5    -0.877102304634E+03   -0.46485E-05   -0.75899E-05  2112   0.152E-02
  44 F= -.87710230E+03 E0= -.87710230E+03  d E =-.623641E-02  mag=    -0.0000
 BRION: g(F)=  0.228E-01 g(S)=  0.000E+00 retain N=  2 mean eig= 0.51
 eig:   0.041  0.983
 bond charge predicted
       N       E                     dE             d eps       ncg     rms          rms(c)
DAV:   1    -0.877104574525E+03   -0.22745E-02   -0.12473E-01  1728   0.482E-01    0.926E-02
DAV:   2    -0.877104799016E+03   -0.22449E-03   -0.36904E-03  2032   0.783E-02    0.660E-02
DAV:   3    -0.877104735217E+03    0.63799E-04   -0.93461E-05  2112   0.205E-02    0.388E-02
DAV:   4    -0.877104708846E+03    0.26371E-04   -0.11373E-04  1936   0.200E-02    0.967E-03
DAV:   5    -0.877104708381E+03    0.46415E-06   -0.22157E-05  1792   0.100E-02
  45 F= -.87710471E+03 E0= -.87710471E+03  d E =-.240375E-02  mag=    -0.0000
 BRION: g(F)=  0.819E-02 g(S)=  0.000E+00 retain N=  1 mean eig= 0.11
 eig:   0.115
 bond charge predicted
       N       E                     dE             d eps       ncg     rms          rms(c)
DAV:   1    -0.877109003701E+03   -0.42949E-02   -0.16711E+00  1728   0.151E+00    0.240E-01
DAV:   2    -0.877111450529E+03   -0.24468E-02   -0.28643E-02  1968   0.187E-01    0.129E-01
DAV:   3    -0.877111325880E+03    0.12465E-03   -0.30968E-04  2144   0.333E-02    0.740E-02
DAV:   4    -0.877111317359E+03    0.85211E-05   -0.24012E-04  1904   0.280E-02    0.171E-02
DAV:   5    -0.877111320720E+03   -0.33608E-05   -0.51685E-05  1904   0.136E-02
  46 F= -.87711132E+03 E0= -.87711132E+03  d E =-.661234E-02  mag=     0.0000
 BRION: g(F)=  0.140E-01 g(S)=  0.000E+00 retain N=  2 mean eig= 0.40
 eig:   0.059  0.740
 bond charge predicted
       N       E                     dE             d eps       ncg     rms          rms(c)
DAV:   1    -0.877113260562E+03   -0.19432E-02   -0.11546E-01  1728   0.485E-01    0.790E-02
DAV:   2    -0.877113442616E+03   -0.18205E-03   -0.28677E-03  2096   0.753E-02    0.542E-02
DAV:   3    -0.877113396731E+03    0.45885E-04   -0.68184E-05  2112   0.194E-02    0.322E-02
DAV:   4    -0.877113376073E+03    0.20659E-04   -0.78351E-05  1904   0.186E-02    0.834E-03
DAV:   5    -0.877113375761E+03    0.31116E-06   -0.19807E-05  1744   0.976E-03
  47 F= -.87711338E+03 E0= -.87711338E+03  d E =-.205504E-02  mag=     0.0000
 BRION: g(F)=  0.780E-02 g(S)=  0.000E+00 retain N=  1 mean eig= 0.13
 eig:   0.131
 bond charge predicted
       N       E                     dE             d eps       ncg     rms          rms(c)
DAV:   1    -0.877117331994E+03   -0.39559E-02   -0.15696E+00  1728   0.143E+00    0.222E-01
DAV:   2    -0.877119605744E+03   -0.22737E-02   -0.26175E-02  1984   0.169E-01    0.121E-01
DAV:   3    -0.877119504868E+03    0.10088E-03   -0.26302E-04  2128   0.263E-02    0.681E-02
DAV:   4    -0.877119504449E+03    0.41926E-06   -0.20840E-04  1840   0.224E-02    0.139E-02
DAV:   5    -0.877119506941E+03   -0.24924E-05   -0.39102E-05  1616   0.945E-03
  48 F= -.87711951E+03 E0= -.87711951E+03  d E =-.613118E-02  mag=     0.0000
 BRION: g(F)=  0.168E-01 g(S)=  0.000E+00 retain N=  2 mean eig= 0.39
 eig:   0.035  0.745
 bond charge predicted
       N       E                     dE             d eps       ncg     rms          rms(c)
DAV:   1    -0.877121136937E+03   -0.16325E-02   -0.78165E-02  1728   0.335E-01    0.815E-02
DAV:   2    -0.877121287200E+03   -0.15026E-03   -0.25024E-03  2016   0.555E-02    0.606E-02
DAV:   3    -0.877121241837E+03    0.45364E-04   -0.61107E-05  1824   0.147E-02    0.358E-02
DAV:   4    -0.877121223632E+03    0.18204E-04   -0.86922E-05  1776   0.154E-02    0.872E-03
DAV:   5    -0.877121223251E+03    0.38148E-06   -0.13053E-05  1456   0.774E-03
  49 F= -.87712122E+03 E0= -.87712122E+03  d E =-.171631E-02  mag=    -0.0000
 BRION: g(F)=  0.791E-02 g(S)=  0.000E+00 retain N=  1 mean eig= 0.10
 eig:   0.096
 bond charge predicted
       N       E                     dE             d eps       ncg     rms          rms(c)
DAV:   1    -0.877125067078E+03   -0.38434E-02   -0.15052E+00  1728   0.144E+00    0.229E-01
DAV:   2    -0.877127288899E+03   -0.22218E-02   -0.26001E-02  1952   0.177E-01    0.123E-01
DAV:   3    -0.877127173098E+03    0.11580E-03   -0.27295E-04  2144   0.312E-02    0.705E-02
DAV:   4    -0.877127167282E+03    0.58151E-05   -0.22636E-04  1920   0.273E-02    0.161E-02
DAV:   5    -0.877127170599E+03   -0.33169E-05   -0.47334E-05  1904   0.125E-02
  50 F= -.87712717E+03 E0= -.87712717E+03  d E =-.594735E-02  mag=     0.0000
 BRION: g(F)=  0.129E-01 g(S)=  0.000E+00 retain N=  2 mean eig= 0.28
 eig:   0.039  0.528
 bond charge predicted
       N       E                     dE             d eps       ncg     rms          rms(c)
DAV:   1    -0.877128974102E+03   -0.18068E-02   -0.12124E-01  1728   0.434E-01    0.862E-02
DAV:   2    -0.877129164827E+03   -0.19072E-03   -0.29925E-03  2096   0.640E-02    0.519E-02
DAV:   3    -0.877129125567E+03    0.39260E-04   -0.78458E-05  1984   0.165E-02    0.283E-02
DAV:   4    -0.877129117694E+03    0.78726E-05   -0.57469E-05  1744   0.130E-02
  51 F= -.87712912E+03 E0= -.87712912E+03  d E =-.194710E-02  mag=    -0.0000
 BRION: g(F)=  0.681E-02 g(S)=  0.000E+00 retain N=  1 mean eig= 0.15
 eig:   0.154
 bond charge predicted
       N       E                     dE             d eps       ncg     rms          rms(c)
DAV:   1    -0.877132971673E+03   -0.38461E-02   -0.14015E+00  1728   0.137E+00    0.216E-01
DAV:   2    -0.877135013802E+03   -0.20421E-02   -0.23455E-02  1952   0.164E-01    0.116E-01
DAV:   3    -0.877134925360E+03    0.88442E-04   -0.22241E-04  2128   0.268E-02    0.663E-02
DAV:   4    -0.877134923736E+03    0.16243E-05   -0.17361E-04  1808   0.220E-02    0.137E-02
DAV:   5    -0.877134926885E+03   -0.31489E-05   -0.36642E-05  1680   0.103E-02
  52 F= -.87713493E+03 E0= -.87713493E+03  d E =-.580919E-02  mag=    -0.0000
 BRION: g(F)=  0.122E-01 g(S)=  0.000E+00 retain N=  2 mean eig= 0.33
 eig:   0.054  0.611
 bond charge predicted
       N       E                     dE             d eps       ncg     rms          rms(c)
DAV:   1    -0.877136215127E+03   -0.12914E-02   -0.55301E-02  1728   0.314E-01    0.633E-02
DAV:   2    -0.877136320920E+03   -0.10579E-03   -0.16228E-03  1968   0.508E-02    0.500E-02
DAV:   3    -0.877136292048E+03    0.28872E-04   -0.30761E-05  1680   0.123E-02    0.309E-02
DAV:   4    -0.877136277755E+03    0.14293E-04   -0.78905E-05  1808   0.165E-02    0.843E-03
DAV:   5    -0.877136277152E+03    0.60282E-06   -0.11159E-05  1440   0.721E-03
  53 F= -.87713628E+03 E0= -.87713628E+03  d E =-.135027E-02  mag=     0.0000
 BRION: g(F)=  0.744E-02 g(S)=  0.000E+00 retain N=  1 mean eig= 0.09
 eig:   0.091
 bond charge predicted
       N       E                     dE             d eps       ncg     rms          rms(c)
DAV:   1    -0.877139820204E+03   -0.35424E-02   -0.13516E+00  1728   0.135E+00    0.211E-01
DAV:   2    -0.877141774861E+03   -0.19547E-02   -0.22819E-02  1984   0.163E-01    0.115E-01
DAV:   3    -0.877141670888E+03    0.10397E-03   -0.24649E-04  2144   0.291E-02    0.652E-02
DAV:   4    -0.877141662860E+03    0.80279E-05   -0.20943E-04  1936   0.265E-02    0.149E-02
DAV:   5    -0.877141664347E+03   -0.14864E-05   -0.45730E-05  1776   0.120E-02
  54 F= -.87714166E+03 E0= -.87714166E+03  d E =-.538720E-02  mag=    -0.0000
 BRION: g(F)=  0.115E-01 g(S)=  0.000E+00 retain N=  2 mean eig= 0.42
 eig:   0.044  0.798
 bond charge predicted
       N       E                     dE             d eps       ncg     rms          rms(c)
DAV:   1    -0.877143364035E+03   -0.17012E-02   -0.10533E-01  1728   0.434E-01    0.801E-02
DAV:   2    -0.877143519907E+03   -0.15587E-03   -0.26264E-03  2096   0.675E-02    0.502E-02
DAV:   3    -0.877143480183E+03    0.39724E-04   -0.74055E-05  2128   0.182E-02    0.286E-02
DAV:   4    -0.877143467034E+03    0.13149E-04   -0.54339E-05  1776   0.146E-02    0.825E-03
DAV:   5    -0.877143466684E+03    0.34989E-06   -0.14554E-05  1568   0.896E-03
  55 F= -.87714347E+03 E0= -.87714347E+03  d E =-.180234E-02  mag=    -0.0000
 BRION: g(F)=  0.608E-02 g(S)=  0.000E+00 retain N=  1 mean eig= 0.16
 eig:   0.156
 bond charge predicted
       N       E                     dE             d eps       ncg     rms          rms(c)
DAV:   1    -0.877147288324E+03   -0.38213E-02   -0.12845E+00  1728   0.130E+00    0.210E-01
DAV:   2    -0.877149144501E+03   -0.18562E-02   -0.21131E-02  1840   0.154E-01    0.113E-01
DAV:   3    -0.877149070363E+03    0.74138E-04   -0.18438E-04  2048   0.245E-02    0.647E-02
DAV:   4    -0.877149076686E+03   -0.63228E-05   -0.15638E-04  1776   0.193E-02    0.138E-02
DAV:   5    -0.877149080178E+03   -0.34918E-05   -0.27481E-05  1600   0.796E-03
  56 F= -.87714908E+03 E0= -.87714908E+03  d E =-.561349E-02  mag=     0.0000
 BRION: g(F)=  0.716E-02 g(S)=  0.000E+00 retain N=  2 mean eig= 0.21
 eig:   0.045  0.369
 bond charge predicted
       N       E                     dE             d eps       ncg     rms          rms(c)
DAV:   1    -0.877150360455E+03   -0.12838E-02   -0.79002E-02  1728   0.326E-01    0.683E-02
DAV:   2    -0.877150495725E+03   -0.13527E-03   -0.17460E-03  1920   0.444E-02    0.456E-02
DAV:   3    -0.877150476992E+03    0.18733E-04   -0.25522E-05  1616   0.982E-03    0.264E-02
DAV:   4    -0.877150473383E+03    0.36092E-05   -0.47206E-05  1536   0.106E-02
  57 F= -.87715047E+03 E0= -.87715047E+03  d E =-.139321E-02  mag=     0.0000
 BRION: g(F)=  0.743E-02 g(S)=  0.000E+00 retain N=  1 mean eig= 0.10
 eig:   0.096
 bond charge predicted
       N       E                     dE             d eps       ncg     rms          rms(c)
DAV:   1    -0.877153801834E+03   -0.33248E-02   -0.10126E+00  1728   0.116E+00    0.183E-01
DAV:   2    -0.877155291162E+03   -0.14893E-02   -0.17047E-02  1920   0.140E-01    0.986E-02
DAV:   3    -0.877155224074E+03    0.67088E-04   -0.16039E-04  2096   0.230E-02    0.565E-02
DAV:   4    -0.877155223069E+03    0.10053E-05   -0.13631E-04  1808   0.196E-02    0.119E-02
DAV:   5    -0.877155225092E+03   -0.20238E-05   -0.26478E-05  1632   0.887E-03
  58 F= -.87715523E+03 E0= -.87715523E+03  d E =-.475171E-02  mag=     0.0000
 BRION: g(F)=  0.813E-02 g(S)=  0.000E+00 retain N=  2 mean eig= 1.63
 eig:   0.065  3.196
 bond charge predicted
       N       E                     dE             d eps       ncg     rms          rms(c)
DAV:   1    -0.877156713185E+03   -0.14901E-02   -0.97875E-02  1728   0.408E-01    0.698E-02
DAV:   2    -0.877156860921E+03   -0.14774E-03   -0.20615E-03  2048   0.586E-02    0.438E-02
DAV:   3    -0.877156837295E+03    0.23626E-04   -0.35525E-05  1712   0.138E-02    0.255E-02
DAV:   4    -0.877156830314E+03    0.69810E-05   -0.46633E-05  1808   0.138E-02
  59 F= -.87715683E+03 E0= -.87715683E+03  d E =-.160522E-02  mag=    -0.0000
 BRION: g(F)=  0.553E-02 g(S)=  0.000E+00 retain N=  2 mean eig= 3.58
 eig:   0.122  7.043
 bond charge predicted
       N       E                     dE             d eps       ncg     rms          rms(c)
DAV:   1    -0.877160160589E+03   -0.33233E-02   -0.88605E-01  1728   0.108E+00    0.178E-01
DAV:   2    -0.877161424720E+03   -0.12641E-02   -0.14439E-02  1856   0.126E-01    0.976E-02
DAV:   3    -0.877161368077E+03    0.56643E-04   -0.13099E-04  1968   0.211E-02    0.553E-02
DAV:   4    -0.877161372954E+03   -0.48773E-05   -0.12102E-04  1680   0.163E-02    0.124E-02
DAV:   5    -0.877161375170E+03   -0.22151E-05   -0.19286E-05  1552   0.654E-03
  60 F= -.87716138E+03 E0= -.87716138E+03  d E =-.454486E-02  mag=    -0.0000
 BRION: g(F)=  0.560E-02 g(S)=  0.000E+00 retain N=  2 mean eig= 0.08
 eig:   0.125  0.036
 bond charge predicted
       N       E                     dE             d eps       ncg     rms          rms(c)
DAV:   1    -0.877163477406E+03   -0.21045E-02   -0.26460E-01  1728   0.587E-01    0.102E-01
DAV:   2    -0.877163864251E+03   -0.38684E-03   -0.45605E-03  1920   0.718E-02    0.551E-02
DAV:   3    -0.877163844975E+03    0.19276E-04   -0.48010E-05  1760   0.130E-02    0.313E-02
DAV:   4    -0.877163846943E+03   -0.19674E-05   -0.41856E-05  1392   0.103E-02
  61 F= -.87716385E+03 E0= -.87716385E+03  d E =-.247177E-02  mag=    -0.0000
 BRION: g(F)=  0.516E-02 g(S)=  0.000E+00 retain N=  2 mean eig= 2.45
 eig:   0.201  4.705
 bond charge predicted
       N       E                     dE             d eps       ncg     rms          rms(c)
DAV:   1    -0.877167716677E+03   -0.38717E-02   -0.23351E+00  1728   0.176E+00    0.295E-01
DAV:   2    -0.877171047669E+03   -0.33310E-02   -0.38364E-02  1840   0.211E-01    0.165E-01
DAV:   3    -0.877170892471E+03    0.15520E-03   -0.35278E-04  2096   0.375E-02    0.937E-02
DAV:   4    -0.877170898255E+03   -0.57839E-05   -0.34294E-04  1904   0.305E-02    0.216E-02
DAV:   5    -0.877170904401E+03   -0.61460E-05   -0.58818E-05  1968   0.127E-02
  62 F= -.87717090E+03 E0= -.87717090E+03  d E =-.705746E-02  mag=     0.0000
 BRION: g(F)=  0.781E-02 g(S)=  0.000E+00 retain N=  2 mean eig= 0.12
 eig:   0.096  0.152
 bond charge predicted
       N       E                     dE             d eps       ncg     rms          rms(c)
DAV:   1    -0.877169195411E+03    0.17028E-02   -0.13520E-01  1728   0.465E-01    0.799E-02
DAV:   2    -0.877169404602E+03   -0.20919E-03   -0.27706E-03  1984   0.646E-02    0.564E-02
DAV:   3    -0.877169369987E+03    0.34615E-04   -0.42570E-05  1760   0.147E-02    0.335E-02
DAV:   4    -0.877169358034E+03    0.11953E-04   -0.75197E-05  1872   0.161E-02    0.840E-03
DAV:   5    -0.877169358004E+03    0.30821E-07   -0.12013E-05  1488   0.734E-03
  63 F= -.87716936E+03 E0= -.87716936E+03  d E =0.154640E-02  mag=    -0.0000
 BRION: g(F)=  0.683E-02 g(S)=  0.000E+00 retain N=  2 mean eig= 2.18
 eig:   0.125  4.229
 bond charge predicted
       N       E                     dE             d eps       ncg     rms          rms(c)
DAV:   1    -0.877171022493E+03   -0.16645E-02   -0.14321E-01  1728   0.438E-01    0.811E-02
DAV:   2    -0.877171239130E+03   -0.21664E-03   -0.26269E-03  1888   0.552E-02    0.525E-02
DAV:   3    -0.877171216648E+03    0.22482E-04   -0.29664E-05  1648   0.113E-02    0.303E-02
DAV:   4    -0.877171213121E+03    0.35278E-05   -0.46865E-05  1504   0.109E-02
  64 F= -.87717121E+03 E0= -.87717121E+03  d E =-.185512E-02  mag=     0.0000
 BRION: g(F)=  0.556E-02 g(S)=  0.000E+00 retain N=  2 mean eig= 1.73
 eig:   0.067  3.388
 bond charge predicted
       N       E                     dE             d eps       ncg     rms          rms(c)
DAV:   1    -0.877174047959E+03   -0.28313E-02   -0.85884E-01  1728   0.106E+00    0.178E-01
DAV:   2    -0.877175313070E+03   -0.12651E-02   -0.14766E-02  1920   0.127E-01    0.943E-02
DAV:   3    -0.877175253967E+03    0.59103E-04   -0.15186E-04  2032   0.215E-02    0.534E-02
DAV:   4    -0.877175259238E+03   -0.52709E-05   -0.11609E-04  1664   0.162E-02    0.128E-02
DAV:   5    -0.877175261835E+03   -0.25971E-05   -0.19959E-05  1584   0.708E-03
  65 F= -.87717526E+03 E0= -.87717526E+03  d E =-.404871E-02  mag=     0.0000
 BRION: g(F)=  0.695E-02 g(S)=  0.000E+00 retain N=  3 mean eig= 1.54
 eig:   3.906  0.030  0.671
 bond charge predicted
       N       E                     dE             d eps       ncg     rms          rms(c)
DAV:   1    -0.877176505493E+03   -0.12463E-02   -0.85973E-02  1728   0.335E-01    0.657E-02
DAV:   2    -0.877176631456E+03   -0.12596E-03   -0.17592E-03  2096   0.440E-02    0.359E-02
DAV:   3    -0.877176616281E+03    0.15174E-04   -0.39806E-05  1712   0.104E-02    0.191E-02
DAV:   4    -0.877176615684E+03    0.59729E-06   -0.23264E-05  1536   0.760E-03
  66 F= -.87717662E+03 E0= -.87717662E+03  d E =-.135385E-02  mag=     0.0000
 BRION: g(F)=  0.473E-02 g(S)=  0.000E+00 retain N=  2 mean eig= 3.56
 eig:   0.132  6.993
 bond charge predicted
       N       E                     dE             d eps       ncg     rms          rms(c)
DAV:   1    -0.877179444910E+03   -0.28286E-02   -0.68749E-01  1728   0.945E-01    0.165E-01
DAV:   2    -0.877180436695E+03   -0.99179E-03   -0.11458E-02  1808   0.112E-01    0.940E-02
DAV:   3    -0.877180383220E+03    0.53476E-04   -0.10635E-04  1888   0.199E-02    0.534E-02
DAV:   4    -0.877180386709E+03   -0.34895E-05   -0.10702E-04  1568   0.151E-02    0.128E-02
DAV:   5    -0.877180388295E+03   -0.15856E-05   -0.14702E-05  1488   0.637E-03
  67 F= -.87718039E+03 E0= -.87718039E+03  d E =-.377261E-02  mag=    -0.0000
 BRION: g(F)=  0.598E-02 g(S)=  0.000E+00 retain N=  2 mean eig= 0.15
 eig:   0.178  0.121
 bond charge predicted
       N       E                     dE             d eps       ncg     rms          rms(c)
DAV:   1    -0.877181712887E+03   -0.13262E-02   -0.11679E-01  1728   0.383E-01    0.607E-02
DAV:   2    -0.877181893412E+03   -0.18053E-03   -0.20520E-03  1936   0.455E-02    0.329E-02
DAV:   3    -0.877181884997E+03    0.84150E-05   -0.19674E-05  1600   0.658E-03
  68 F= -.87718188E+03 E0= -.87718188E+03  d E =-.149670E-02  mag=    -0.0000
 BRION: g(F)=  0.480E-02 g(S)=  0.000E+00 retain N=  1 mean eig= 0.09
 eig:   0.087
 bond charge predicted
       N       E                     dE             d eps       ncg     rms          rms(c)
DAV:   1    -0.877184801619E+03   -0.29082E-02   -0.84894E-01  1728   0.106E+00    0.177E-01
DAV:   2    -0.877186003303E+03   -0.12017E-02   -0.13798E-02  1872   0.125E-01    0.984E-02
DAV:   3    -0.877185946647E+03    0.56656E-04   -0.12707E-04  1968   0.219E-02    0.558E-02
DAV:   4    -0.877185950861E+03   -0.42141E-05   -0.12291E-04  1712   0.174E-02    0.126E-02
DAV:   5    -0.877185952856E+03   -0.19948E-05   -0.20249E-05  1600   0.710E-03
  69 F= -.87718595E+03 E0= -.87718595E+03  d E =-.406786E-02  mag=    -0.0000
 BRION: g(F)=  0.504E-02 g(S)=  0.000E+00 retain N=  2 mean eig= 0.15
 eig:   0.149  0.149
 bond charge predicted
       N       E                     dE             d eps       ncg     rms          rms(c)
DAV:   1    -0.877187155584E+03   -0.12047E-02   -0.94374E-02  1728   0.362E-01    0.651E-02
DAV:   2    -0.877187292967E+03   -0.13738E-03   -0.17883E-03  2064   0.477E-02    0.350E-02
DAV:   3    -0.877187281113E+03    0.11854E-04   -0.28109E-05  1664   0.102E-02    0.196E-02
DAV:   4    -0.877187280387E+03    0.72590E-06   -0.22335E-05  1552   0.855E-03
  70 F= -.87718728E+03 E0= -.87718728E+03  d E =-.132753E-02  mag=    -0.0000
 BRION: g(F)=  0.438E-02 g(S)=  0.000E+00 retain N=  1 mean eig= 0.20
 eig:   0.201
 bond charge predicted
       N       E                     dE             d eps       ncg     rms          rms(c)
DAV:   1    -0.877190127274E+03   -0.28462E-02   -0.82063E-01  1728   0.103E+00    0.173E-01
DAV:   2    -0.877191303303E+03   -0.11760E-02   -0.13381E-02  1824   0.121E-01    0.958E-02
DAV:   3    -0.877191251038E+03    0.52265E-04   -0.11704E-04  1920   0.203E-02    0.543E-02
DAV:   4    -0.877191256365E+03   -0.53264E-05   -0.10993E-04  1584   0.155E-02    0.122E-02
DAV:   5    -0.877191258604E+03   -0.22391E-05   -0.17559E-05  1520   0.625E-03
  71 F= -.87719126E+03 E0= -.87719126E+03  d E =-.397822E-02  mag=    -0.0000
 BRION: g(F)=  0.434E-02 g(S)=  0.000E+00 retain N=  2 mean eig= 1.78
 eig:   0.156  3.404
 bond charge predicted
       N       E                     dE             d eps       ncg     rms          rms(c)
DAV:   1    -0.877193336617E+03   -0.20803E-02   -0.50887E-01  1728   0.806E-01    0.129E-01
DAV:   2    -0.877194095869E+03   -0.75925E-03   -0.85849E-03  1888   0.951E-02    0.679E-02
DAV:   3    -0.877194066295E+03    0.29575E-04   -0.74554E-05  1808   0.142E-02    0.387E-02
DAV:   4    -0.877194067192E+03   -0.89740E-06   -0.59190E-05  1488   0.124E-02
  72 F= -.87719407E+03 E0= -.87719407E+03  d E =-.280859E-02  mag=    -0.0000
 BRION: g(F)=  0.815E-02 g(S)=  0.000E+00 retain N=  2 mean eig= 0.25
 eig:   0.253  0.253
 bond charge predicted
       N       E                     dE             d eps       ncg     rms          rms(c)
DAV:   1    -0.877194944843E+03   -0.87855E-03   -0.40923E-02  1728   0.235E-01    0.582E-02
DAV:   2    -0.877195028668E+03   -0.83824E-04   -0.12155E-03  1904   0.364E-02    0.461E-02
DAV:   3    -0.877195007591E+03    0.21077E-04   -0.21157E-05  1616   0.894E-03    0.282E-02
DAV:   4    -0.877194999096E+03    0.84947E-05   -0.58428E-05  1536   0.118E-02
  73 F= -.87719500E+03 E0= -.87719500E+03  d E =-.931904E-03  mag=    -0.0000
 BRION: g(F)=  0.511E-02 g(S)=  0.000E+00 retain N=  1 mean eig= 0.08
 eig:   0.080
 bond charge predicted
       N       E                     dE             d eps       ncg     rms          rms(c)
DAV:   1    -0.877197562735E+03   -0.25551E-02   -0.80031E-01  1728   0.101E+00    0.169E-01
DAV:   2    -0.877198703427E+03   -0.11407E-02   -0.13176E-02  1888   0.119E-01    0.926E-02
DAV:   3    -0.877198648055E+03    0.55372E-04   -0.13262E-04  1968   0.200E-02    0.521E-02
DAV:   4    -0.877198652219E+03   -0.41642E-05   -0.11998E-04  1616   0.156E-02    0.123E-02
DAV:   5    -0.877198653944E+03   -0.17249E-05   -0.18716E-05  1552   0.632E-03
  74 F= -.87719865E+03 E0= -.87719865E+03  d E =-.365485E-02  mag=    -0.0000
 BRION: g(F)=  0.558E-02 g(S)=  0.000E+00 retain N=  2 mean eig= 0.11
 eig:   0.031  0.184
 bond charge predicted
       N       E                     dE             d eps       ncg     rms          rms(c)
DAV:   1    -0.877199523152E+03   -0.87093E-03   -0.53560E-02  1728   0.253E-01    0.534E-02
DAV:   2    -0.877199598372E+03   -0.75220E-04   -0.11175E-03  2080   0.328E-02    0.274E-02
DAV:   3    -0.877199589775E+03    0.85974E-05   -0.26748E-05  1648   0.753E-03
  75 F= -.87719959E+03 E0= -.87719959E+03  d E =-.935831E-03  mag=     0.0000
 BRION: g(F)=  0.395E-02 g(S)=  0.000E+00 retain N=  2 mean eig= 2.09
 eig:   0.234  3.954
 bond charge predicted
       N       E                     dE             d eps       ncg     rms          rms(c)
DAV:   1    -0.877202637267E+03   -0.30389E-02   -0.21157E+00  1728   0.166E+00    0.280E-01
DAV:   2    -0.877205667415E+03   -0.30301E-02   -0.34674E-02  1824   0.195E-01    0.157E-01
DAV:   3    -0.877205537192E+03    0.13022E-03   -0.30264E-04  2064   0.333E-02    0.892E-02
DAV:   4    -0.877205547536E+03   -0.10344E-04   -0.29488E-04  1840   0.256E-02    0.202E-02
DAV:   5    -0.877205553081E+03   -0.55451E-05   -0.45125E-05  1680   0.102E-02
  76 F= -.87720555E+03 E0= -.87720555E+03  d E =-.596331E-02  mag=    -0.0000
 BRION: g(F)=  0.577E-02 g(S)=  0.000E+00 retain N=  2 mean eig= 0.14
 eig:   0.143  0.143
 bond charge predicted
       N       E                     dE             d eps       ncg     rms          rms(c)
DAV:   1    -0.877202096532E+03    0.34510E-02   -0.44593E-01  1728   0.761E-01    0.138E-01
DAV:   2    -0.877202759092E+03   -0.66256E-03   -0.78542E-03  1808   0.927E-02    0.885E-02
DAV:   3    -0.877202701090E+03    0.58002E-04   -0.82409E-05  1792   0.182E-02    0.509E-02
DAV:   4    -0.877202695668E+03    0.54222E-05   -0.12678E-04  1680   0.158E-02    0.128E-02
DAV:   5    -0.877202695302E+03    0.36578E-06   -0.12567E-05  1552   0.681E-03
  77 F= -.87720270E+03 E0= -.87720270E+03  d E =0.285778E-02  mag=    -0.0000
 BRION: g(F)=  0.674E-02 g(S)=  0.000E+00 retain N=  1 mean eig= 0.08
 eig:   0.080
 bond charge predicted
       N       E                     dE             d eps       ncg     rms          rms(c)
DAV:   1    -0.877205514413E+03   -0.28187E-02   -0.16838E+00  1728   0.151E+00    0.251E-01
DAV:   2    -0.877207962227E+03   -0.24478E-02   -0.28771E-02  1936   0.188E-01    0.142E-01
DAV:   3    -0.877207818640E+03    0.14359E-03   -0.29698E-04  2144   0.363E-02    0.814E-02
DAV:   4    -0.877207805194E+03    0.13446E-04   -0.27244E-04  1984   0.298E-02    0.196E-02
DAV:   5    -0.877207808523E+03   -0.33293E-05   -0.58732E-05  2032   0.153E-02
  78 F= -.87720781E+03 E0= -.87720781E+03  d E =-.511322E-02  mag=    -0.0000
 BRION: g(F)=  0.675E-02 g(S)=  0.000E+00 retain N=  2 mean eig= 0.34
 eig:   0.095  0.579
 bond charge predicted
       N       E                     dE             d eps       ncg     rms          rms(c)
DAV:   1    -0.877208938182E+03   -0.11330E-02   -0.77092E-02  1728   0.398E-01    0.588E-02
DAV:   2    -0.877209047940E+03   -0.10976E-03   -0.17126E-03  2080   0.597E-02    0.356E-02
DAV:   3    -0.877209022972E+03    0.24967E-04   -0.45493E-05  2080   0.165E-02    0.204E-02
DAV:   4    -0.877209013362E+03    0.96104E-05   -0.31313E-05  1792   0.138E-02
  79 F= -.87720901E+03 E0= -.87720901E+03  d E =-.120484E-02  mag=     0.0000
 BRION: g(F)=  0.362E-02 g(S)=  0.000E+00 retain N=  2 mean eig= 0.73
 eig:   0.196  1.261
 bond charge predicted
       N       E                     dE             d eps       ncg     rms          rms(c)
DAV:   1    -0.877211532355E+03   -0.25094E-02   -0.96712E-01  1728   0.112E+00    0.186E-01
DAV:   2    -0.877212933530E+03   -0.14012E-02   -0.15969E-02  1872   0.133E-01    0.101E-01
DAV:   3    -0.877212875249E+03    0.58280E-04   -0.13711E-04  1968   0.222E-02    0.575E-02
DAV:   4    -0.877212879543E+03   -0.42932E-05   -0.12187E-04  1712   0.174E-02    0.129E-02
DAV:   5    -0.877212882019E+03   -0.24759E-05   -0.21160E-05  1600   0.761E-03
  80 F= -.87721288E+03 E0= -.87721288E+03  d E =-.386866E-02  mag=    -0.0000
 BRION: g(F)=  0.402E-02 g(S)=  0.000E+00 retain N=  3 mean eig= 1.85
 eig:   5.163  0.014  0.382
 bond charge predicted
       N       E                     dE             d eps       ncg     rms          rms(c)
DAV:   1    -0.877214963809E+03   -0.20843E-02   -0.53191E-01  1728   0.835E-01    0.138E-01
DAV:   2    -0.877215739710E+03   -0.77590E-03   -0.88673E-03  1920   0.100E-01    0.749E-02
DAV:   3    -0.877215705746E+03    0.33964E-04   -0.82116E-05  1824   0.171E-02    0.426E-02
DAV:   4    -0.877215708610E+03   -0.28643E-05   -0.76858E-05  1648   0.139E-02
  81 F= -.87721571E+03 E0= -.87721571E+03  d E =-.282659E-02  mag=    -0.0000
 BRION: g(F)=  0.404E-02 g(S)=  0.000E+00 retain N=  3 mean eig= 0.50
 eig:   0.270  0.615  0.615
 bond charge predicted
       N       E                     dE             d eps       ncg     rms          rms(c)
DAV:   1    -0.877213731001E+03    0.19747E-02   -0.18278E-01  1728   0.477E-01    0.737E-02
DAV:   2    -0.877214034125E+03   -0.30312E-03   -0.37319E-03  1952   0.602E-02    0.483E-02
DAV:   3    -0.877214003946E+03    0.30179E-04   -0.51078E-05  1744   0.102E-02    0.275E-02
DAV:   4    -0.877213993495E+03    0.10451E-04   -0.30011E-05  1440   0.104E-02    0.574E-03
DAV:   5    -0.877213994267E+03   -0.77253E-06   -0.97513E-06  1456   0.511E-03
  82 F= -.87721399E+03 E0= -.87721399E+03  d E =0.171434E-02  mag=     0.0000
 BRION: g(F)=  0.110E-01 g(S)=  0.000E+00 retain N=  2 mean eig= 0.20
 eig:   0.260  0.149
 bond charge predicted
       N       E                     dE             d eps       ncg     rms          rms(c)
DAV:   1    -0.877216667309E+03   -0.26738E-02   -0.10262E+00  1728   0.115E+00    0.181E-01
DAV:   2    -0.877218168439E+03   -0.15011E-02   -0.17021E-02  1888   0.135E-01    0.973E-02
DAV:   3    -0.877218107137E+03    0.61302E-04   -0.14814E-04  1936   0.207E-02    0.555E-02
DAV:   4    -0.877218107496E+03   -0.35900E-06   -0.12185E-04  1728   0.176E-02    0.106E-02
DAV:   5    -0.877218110100E+03   -0.26044E-05   -0.24794E-05  1600   0.708E-03
  83 F= -.87721811E+03 E0= -.87721811E+03  d E =-.411583E-02  mag=     0.0000
 BRION: g(F)=  0.366E-02 g(S)=  0.000E+00 retain N=  1 mean eig= 0.09
 eig:   0.086
 bond charge predicted
       N       E                     dE             d eps       ncg     rms          rms(c)
DAV:   1    -0.877219778361E+03   -0.16709E-02   -0.78649E-01  1728   0.104E+00    0.169E-01
DAV:   2    -0.877220929847E+03   -0.11515E-02   -0.14030E-02  2000   0.133E-01    0.926E-02
DAV:   3    -0.877220849168E+03    0.80679E-04   -0.21046E-04  2144   0.276E-02    0.517E-02
DAV:   4    -0.877220840427E+03    0.87408E-05   -0.14288E-04  1936   0.226E-02    0.136E-02
DAV:   5    -0.877220841335E+03   -0.90767E-06   -0.34293E-05  1712   0.117E-02
  84 F= -.87722084E+03 E0= -.87722084E+03  d E =-.273123E-02  mag=     0.0000
 BRION: g(F)=  0.835E-02 g(S)=  0.000E+00 retain N=  2 mean eig= 0.14
 eig:   0.074  0.208
 bond charge predicted
       N       E                     dE             d eps       ncg     rms          rms(c)
DAV:   1    -0.877221884166E+03   -0.10437E-02   -0.73662E-02  1728   0.357E-01    0.722E-02
DAV:   2    -0.877221986735E+03   -0.10257E-03   -0.20560E-03  2112   0.569E-02    0.419E-02
DAV:   3    -0.877221952990E+03    0.33745E-04   -0.78477E-05  1984   0.175E-02    0.221E-02
DAV:   4    -0.877221945756E+03    0.72343E-05   -0.34042E-05  1600   0.115E-02
  85 F= -.87722195E+03 E0= -.87722195E+03  d E =-.110442E-02  mag=     0.0000
 BRION: g(F)=  0.331E-02 g(S)=  0.000E+00 retain N=  1 mean eig= 0.19
 eig:   0.187
 bond charge predicted
       N       E                     dE             d eps       ncg     rms          rms(c)
DAV:   1    -0.877223637932E+03   -0.16849E-02   -0.76312E-01  1728   0.992E-01    0.154E-01
DAV:   2    -0.877224782372E+03   -0.11444E-02   -0.13002E-02  1904   0.118E-01    0.833E-02
DAV:   3    -0.877224730590E+03    0.51782E-04   -0.11488E-04  1936   0.187E-02    0.474E-02
DAV:   4    -0.877224725077E+03    0.55126E-05   -0.92450E-05  1664   0.178E-02
  86 F= -.87722473E+03 E0= -.87722473E+03  d E =-.277932E-02  mag=    -0.0000
 BRION: g(F)=  0.119E-01 g(S)=  0.000E+00 retain N=  2 mean eig= 0.10
 eig:   0.105  0.105
 bond charge predicted
       N       E                     dE             d eps       ncg     rms          rms(c)
DAV:   1    -0.877225366981E+03   -0.63639E-03   -0.23079E-02  1728   0.165E-01    0.515E-02
DAV:   2    -0.877225441207E+03   -0.74226E-04   -0.11392E-03  1856   0.317E-02    0.471E-02
DAV:   3    -0.877225419861E+03    0.21346E-04   -0.17143E-05  1568   0.751E-03    0.318E-02
DAV:   4    -0.877225406290E+03    0.13571E-04   -0.90981E-05  1520   0.140E-02    0.124E-02
DAV:   5    -0.877225404066E+03    0.22241E-05   -0.10589E-05  1312   0.616E-03
  87 F= -.87722540E+03 E0= -.87722540E+03  d E =-.678989E-03  mag=    -0.0000
 BRION: g(F)=  0.387E-02 g(S)=  0.000E+00 retain N=  1 mean eig= 0.08
 eig:   0.078
 bond charge predicted
       N       E                     dE             d eps       ncg     rms          rms(c)
DAV:   1    -0.877227362960E+03   -0.19567E-02   -0.66031E-01  1728   0.936E-01    0.154E-01
DAV:   2    -0.877228332612E+03   -0.96965E-03   -0.11210E-02  1936   0.115E-01    0.841E-02
DAV:   3    -0.877228285496E+03    0.47116E-04   -0.10798E-04  2032   0.207E-02    0.480E-02
DAV:   4    -0.877228284432E+03    0.10643E-05   -0.90258E-05  1712   0.176E-02
  88 F= -.87722828E+03 E0= -.87722828E+03  d E =-.288037E-02  mag=    -0.0000
 BRION: g(F)=  0.382E-02 g(S)=  0.000E+00 retain N=  2 mean eig= 0.12
 eig:   0.062  0.177
 bond charge predicted
       N       E                     dE             d eps       ncg     rms          rms(c)
DAV:   1    -0.877229171287E+03   -0.88579E-03   -0.79513E-02  1728   0.367E-01    0.594E-02
DAV:   2    -0.877229288504E+03   -0.11722E-03   -0.16018E-03  2048   0.512E-02    0.334E-02
DAV:   3    -0.877229272130E+03    0.16373E-04   -0.34970E-05  1744   0.142E-02    0.183E-02
DAV:   4    -0.877229268211E+03    0.39194E-05   -0.22657E-05  1584   0.117E-02
  89 F= -.87722927E+03 E0= -.87722927E+03  d E =-.983779E-03  mag=    -0.0000
 BRION: g(F)=  0.326E-02 g(S)=  0.000E+00 retain N=  1 mean eig= 0.22
 eig:   0.223
 bond charge predicted
       N       E                     dE             d eps       ncg     rms          rms(c)
DAV:   1    -0.877230100931E+03   -0.82880E-03   -0.60720E-01  1728   0.868E-01    0.136E-01
DAV:   2    -0.877231076849E+03   -0.97592E-03   -0.11270E-02  1888   0.105E-01    0.791E-02
DAV:   3    -0.877231015867E+03    0.60982E-04   -0.11299E-04  1888   0.154E-02    0.446E-02
DAV:   4    -0.877231000958E+03    0.14909E-04   -0.86403E-05  1488   0.166E-02    0.767E-03
DAV:   5    -0.877231002459E+03   -0.15013E-05   -0.22573E-05  1616   0.794E-03
  90 F= -.87723100E+03 E0= -.87723100E+03  d E =-.173425E-02  mag=     0.0000
 BRION: g(F)=  0.251E-01 g(S)=  0.000E+00 retain N=  2 mean eig= 0.13
 eig:   0.189  0.065
 bond charge predicted
       N       E                     dE             d eps       ncg     rms          rms(c)
DAV:   1    -0.877232068500E+03   -0.10675E-02   -0.29390E-02  1744   0.157E-01    0.585E-02
DAV:   2    -0.877232171029E+03   -0.10253E-03   -0.16133E-03  1872   0.333E-02    0.566E-02
DAV:   3    -0.877232141531E+03    0.29497E-04   -0.20128E-05  1600   0.707E-03    0.402E-02
DAV:   4    -0.877232119252E+03    0.22279E-04   -0.16500E-04  1552   0.173E-02    0.198E-02
DAV:   5    -0.877232113334E+03    0.59178E-05   -0.21172E-05  1392   0.756E-03
  91 F= -.87723211E+03 E0= -.87723211E+03  d E =-.111088E-02  mag=     0.0000
 BRION: g(F)=  0.300E-02 g(S)=  0.000E+00 retain N=  1 mean eig= 0.08
 eig:   0.077
 bond charge predicted
       N       E                     dE             d eps       ncg     rms          rms(c)
DAV:   1    -0.877233922507E+03   -0.18033E-02   -0.65597E-01  1728   0.943E-01    0.151E-01
DAV:   2    -0.877234888070E+03   -0.96556E-03   -0.11117E-02  1952   0.116E-01    0.834E-02
DAV:   3    -0.877234838232E+03    0.49838E-04   -0.10854E-04  2048   0.219E-02    0.477E-02
DAV:   4    -0.877234832509E+03    0.57230E-05   -0.96647E-05  1792   0.199E-02
  92 F= -.87723483E+03 E0= -.87723483E+03  d E =-.271918E-02  mag=    -0.0000
 BRION: g(F)=  0.365E-02 g(S)=  0.000E+00 retain N=  2 mean eig= 0.15
 eig:   0.101  0.191
 bond charge predicted
       N       E                     dE             d eps       ncg     rms          rms(c)
DAV:   1    -0.877235682489E+03   -0.84426E-03   -0.75618E-02  1728   0.372E-01    0.599E-02
DAV:   2    -0.877235792719E+03   -0.11023E-03   -0.15808E-03  2064   0.537E-02    0.344E-02
DAV:   3    -0.877235774370E+03    0.18349E-04   -0.35454E-05  1776   0.153E-02    0.191E-02
DAV:   4    -0.877235769102E+03    0.52686E-05   -0.24844E-05  1600   0.130E-02
  93 F= -.87723577E+03 E0= -.87723577E+03  d E =-.936592E-03  mag=     0.0000
 BRION: g(F)=  0.284E-02 g(S)=  0.000E+00 retain N=  1 mean eig= 0.21
 eig:   0.212
 bond charge predicted
       N       E                     dE             d eps       ncg     rms          rms(c)
DAV:   1    -0.877237526985E+03   -0.17526E-02   -0.49832E-01  1728   0.806E-01    0.133E-01
DAV:   2    -0.877238250307E+03   -0.72332E-03   -0.82057E-03  1888   0.950E-02    0.728E-02
DAV:   3    -0.877238220325E+03    0.29982E-04   -0.69391E-05  1792   0.157E-02    0.413E-02
DAV:   4    -0.877238222849E+03   -0.25241E-05   -0.65248E-05  1504   0.123E-02
  94 F= -.87723822E+03 E0= -.87723822E+03  d E =-.245375E-02  mag=    -0.0000
 BRION: g(F)=  0.266E-02 g(S)=  0.000E+00 retain N=  2 mean eig= 0.27
 eig:   0.270  0.270
 bond charge predicted
       N       E                     dE             d eps       ncg     rms          rms(c)
DAV:   1    -0.877239469867E+03   -0.12495E-02   -0.21422E-01  1728   0.533E-01    0.971E-02
DAV:   2    -0.877239788469E+03   -0.31860E-03   -0.38070E-03  1952   0.666E-02    0.544E-02
DAV:   3    -0.877239768240E+03    0.20229E-04   -0.42677E-05  1760   0.133E-02    0.307E-02
DAV:   4    -0.877239768853E+03   -0.61339E-06   -0.42377E-05  1440   0.109E-02
  95 F= -.87723977E+03 E0= -.87723977E+03  d E =-.154600E-02  mag=     0.0000
[...]
 BRION: g(F)=  0.469E-03 g(S)=  0.000E+00 retain N=  2 mean eig= 0.16
 eig:   0.162  0.162
 bond charge predicted
       N       E                     dE             d eps       ncg     rms          rms(c)
DAV:   1    -0.877362918432E+03   -0.72644E-04   -0.70584E-03  1728   0.111E-01    0.206E-02
DAV:   2    -0.877362930045E+03   -0.11612E-04   -0.19379E-04  2000   0.176E-02    0.117E-02
DAV:   3    -0.877362927596E+03    0.24483E-05   -0.57870E-06  1376   0.528E-03
 464 F= -.87736293E+03 E0= -.87736293E+03  d E =-.881878E-04  mag=    -0.0000
 BRION: g(F)=  0.203E-03 g(S)=  0.000E+00 retain N=  1 mean eig= 0.23
 eig:   0.233
 bond charge predicted
       N       E                     dE             d eps       ncg     rms          rms(c)
DAV:   1    -0.877363012239E+03   -0.82194E-04   -0.45067E-02  1728   0.215E-01    0.392E-02
DAV:   2    -0.877363081524E+03   -0.69285E-04   -0.83958E-04  2032   0.281E-02    0.218E-02
DAV:   3    -0.877363077943E+03    0.35808E-05   -0.89203E-06  1536   0.570E-03
 465 F= -.87736308E+03 E0= -.87736308E+03  d E =-.150346E-03  mag=    -0.0000
 BRION: g(F)=  0.802E-03 g(S)=  0.000E+00 retain N=  2 mean eig= 0.18
 eig:   0.176  0.176
 bond charge predicted
       N       E                     dE             d eps       ncg     rms          rms(c)
DAV:   1    -0.877363126445E+03   -0.44921E-04   -0.21384E-03  1696   0.505E-02    0.148E-02
DAV:   2    -0.877363133464E+03   -0.70194E-05   -0.10290E-04  1520   0.980E-03    0.136E-02
DAV:   3    -0.877363131853E+03    0.16112E-05   -0.18646E-06  1008   0.267E-03
 466 F= -.87736313E+03 E0= -.87736313E+03  d E =-.539102E-04  mag=    -0.0000
 BRION: g(F)=  0.285E-03 g(S)=  0.000E+00 retain N=  1 mean eig= 0.09
 eig:   0.090
 bond charge predicted
       N       E                     dE             d eps       ncg     rms          rms(c)
DAV:   1    -0.877363182636E+03   -0.49172E-04   -0.52217E-02  1728   0.258E-01    0.444E-02
DAV:   2    -0.877363265046E+03   -0.82411E-04   -0.11025E-03  2112   0.364E-02    0.247E-02
DAV:   3    -0.877363257192E+03    0.78544E-05   -0.19521E-05  1632   0.893E-03
 467 F= -.87736326E+03 E0= -.87736326E+03  d E =-.125339E-03  mag=    -0.0000
 BRION: g(F)=  0.690E-03 g(S)=  0.000E+00 retain N=  2 mean eig= 0.09
 eig:   0.090  0.090
 bond charge predicted
       N       E                     dE             d eps       ncg     rms          rms(c)
DAV:   1    -0.877363357446E+03   -0.92400E-04   -0.95135E-03  1728   0.124E-01    0.259E-02
DAV:   2    -0.877363372665E+03   -0.15220E-04   -0.28581E-04  2080   0.200E-02    0.144E-02
DAV:   3    -0.877363368444E+03    0.42211E-05   -0.78608E-06  1552   0.570E-03
 468 F= -.87736337E+03 E0= -.87736337E+03  d E =-.111252E-03  mag=    -0.0000
 BRION: g(F)=  0.201E-03 g(S)=  0.000E+00 retain N=  1 mean eig= 0.25
 eig:   0.247
 bond charge predicted
       N       E                     dE             d eps       ncg     rms          rms(c)
DAV:   1    -0.877363467369E+03   -0.94703E-04   -0.42897E-02  1728   0.217E-01    0.412E-02
DAV:   2    -0.877363534577E+03   -0.67209E-04   -0.82960E-04  2032   0.290E-02    0.237E-02
DAV:   3    -0.877363531062E+03    0.35148E-05   -0.91286E-06  1536   0.638E-03
 469 F= -.87736353E+03 E0= -.87736353E+03  d E =-.162618E-03  mag=    -0.0000
 BRION: g(F)=  0.392E-03 g(S)=  0.000E+00 retain N=  2 mean eig= 0.21
 eig:   0.249  0.178
 bond charge predicted
       N       E                     dE             d eps       ncg     rms          rms(c)
DAV:   1    -0.877363578535E+03   -0.43957E-04   -0.39618E-03  1728   0.704E-02    0.147E-02
DAV:   2    -0.877363585093E+03   -0.65586E-05   -0.10188E-04  1744   0.107E-02    0.975E-03
DAV:   3    -0.877363583539E+03    0.15542E-05   -0.29246E-06  1088   0.293E-03
 470 F= -.87736358E+03 E0= -.87736358E+03  d E =-.524765E-04  mag=    -0.0000
 BRION: g(F)=  0.353E-03 g(S)=  0.000E+00 retain N=  3 mean eig= 1.06
 eig:   2.815  0.239  0.118
 bond charge predicted
       N       E                     dE             d eps       ncg     rms          rms(c)
DAV:   1    -0.877363615573E+03   -0.30480E-04   -0.99506E-04  1632   0.345E-02    0.859E-03
DAV:   2    -0.877363617884E+03   -0.23106E-05   -0.31875E-05  1488   0.583E-03
 471 F= -.87736362E+03 E0= -.87736362E+03  d E =-.343448E-04  mag=    -0.0000
 BRION: g(F)=  0.190E-03 g(S)=  0.000E+00 retain N=  2 mean eig= 3.10
 eig:   0.072  6.136
 bond charge predicted
       N       E                     dE             d eps       ncg     rms          rms(c)
DAV:   1    -0.877363737959E+03   -0.12239E-03   -0.43779E-02  1728   0.207E-01    0.410E-02
DAV:   2    -0.877363804992E+03   -0.67033E-04   -0.79227E-04  1856   0.257E-02    0.230E-02
DAV:   3    -0.877363803515E+03    0.14772E-05   -0.64895E-06  1472   0.462E-03
 472 F= -.87736380E+03 E0= -.87736380E+03  d E =-.185631E-03  mag=     0.0000
 BRION: g(F)=  0.220E-03 g(S)=  0.000E+00 retain N=  3 mean eig= 2.15
 eig:   6.250  0.100  0.100
 bond charge predicted
       N       E                     dE             d eps       ncg     rms          rms(c)
DAV:   1    -0.877363840967E+03   -0.35975E-04   -0.15465E-03  1648   0.400E-02    0.987E-03
DAV:   2    -0.877363842887E+03   -0.19205E-05   -0.28048E-05  1200   0.533E-03
 473 F= -.87736384E+03 E0= -.87736384E+03  d E =-.393725E-04  mag=     0.0000
 BRION: g(F)=  0.194E-03 g(S)=  0.000E+00 retain N=  2 mean eig= 2.50
 eig:   0.035  4.968
 bond charge predicted
       N       E                     dE             d eps       ncg     rms          rms(c)
DAV:   1    -0.877363900905E+03   -0.59938E-04   -0.10918E-02  1680   0.988E-02    0.201E-02
DAV:   2    -0.877363918268E+03   -0.17363E-04   -0.20834E-04  1680   0.123E-02    0.120E-02
DAV:   3    -0.877363917473E+03    0.79562E-06   -0.26427E-06  1200   0.227E-03
 474 F= -.87736392E+03 E0= -.87736392E+03  d E =-.745854E-04  mag=     0.0000
 BRION: g(F)=  0.550E-03 g(S)=  0.000E+00 retain N=  2 mean eig= 0.20
 eig:   0.198  0.198
 bond charge predicted
       N       E                     dE             d eps       ncg     rms          rms(c)
DAV:   1    -0.877364038860E+03   -0.12059E-03   -0.23554E-02  1712   0.149E-01    0.321E-02
DAV:   2    -0.877364075980E+03   -0.37120E-04   -0.44426E-04  1776   0.187E-02    0.192E-02
DAV:   3    -0.877364074710E+03    0.12698E-05   -0.38420E-06  1280   0.360E-03
 475 F= -.87736407E+03 E0= -.87736407E+03  d E =-.157238E-03  mag=     0.0000
 BRION: g(F)=  0.223E-03 g(S)=  0.000E+00 retain N=  1 mean eig= 0.09
 eig:   0.088
 bond charge predicted
       N       E                     dE             d eps       ncg     rms          rms(c)
DAV:   1    -0.877364169654E+03   -0.93674E-04   -0.57337E-02  1728   0.241E-01    0.510E-02
DAV:   2    -0.877364257869E+03   -0.88214E-04   -0.11215E-03  1952   0.314E-02    0.299E-02
DAV:   3    -0.877364252459E+03    0.54096E-05   -0.12502E-05  1504   0.646E-03
 476 F= -.87736425E+03 E0= -.87736425E+03  d E =-.177749E-03  mag=     0.0000
 BRION: g(F)=  0.681E-03 g(S)=  0.000E+00 retain N=  2 mean eig= 0.45
 eig:   0.088  0.820
 bond charge predicted
       N       E                     dE             d eps       ncg     rms          rms(c)
DAV:   1    -0.877364301977E+03   -0.44108E-04   -0.37472E-03  1680   0.616E-02    0.181E-02
DAV:   2    -0.877364307476E+03   -0.54998E-05   -0.12037E-04  1744   0.106E-02    0.101E-02
DAV:   3    -0.877364305547E+03    0.19290E-05   -0.53652E-06  1152   0.352E-03
 477 F= -.87736431E+03 E0= -.87736431E+03  d E =-.530885E-04  mag=    -0.0000
 BRION: g(F)=  0.213E-03 g(S)=  0.000E+00 retain N=  1 mean eig= 0.17
 eig:   0.173
 bond charge predicted
       N       E                     dE             d eps       ncg     rms          rms(c)
DAV:   1    -0.877364344589E+03   -0.37112E-04   -0.49603E-02  1728   0.208E-01    0.413E-02
DAV:   2    -0.877364422493E+03   -0.77904E-04   -0.94827E-04  1872   0.261E-02    0.238E-02
DAV:   3    -0.877364417537E+03    0.49552E-05   -0.10593E-05  1504   0.429E-03
 478 F= -.87736442E+03 E0= -.87736442E+03  d E =-.111990E-03  mag=    -0.0000
 BRION: g(F)=  0.174E-02 g(S)=  0.000E+00 retain N=  2 mean eig= 0.07
 eig:   0.007  0.130
 bond charge predicted
       N       E                     dE             d eps       ncg     rms          rms(c)
DAV:   1    -0.877364507089E+03   -0.84597E-04   -0.38317E-03  1584   0.462E-02    0.203E-02
DAV:   2    -0.877364516424E+03   -0.93348E-05   -0.15751E-04  1472   0.879E-03    0.155E-02
DAV:   3    -0.877364513798E+03    0.26268E-05   -0.36949E-06  1216   0.280E-03
 479 F= -.87736451E+03 E0= -.87736451E+03  d E =-.962600E-04  mag=     0.0000
 BRION: g(F)=  0.195E-03 g(S)=  0.000E+00 retain N=  1 mean eig= 0.10
 eig:   0.097
 bond charge predicted
       N       E                     dE             d eps       ncg     rms          rms(c)
DAV:   1    -0.877364625794E+03   -0.10937E-03   -0.42926E-02  1728   0.217E-01    0.393E-02
DAV:   2    -0.877364692651E+03   -0.66857E-04   -0.79853E-04  1936   0.283E-02    0.220E-02
DAV:   3    -0.877364690380E+03    0.22714E-05   -0.73463E-06  1440   0.552E-03
 480 F= -.87736469E+03 E0= -.87736469E+03  d E =-.176582E-03  mag=     0.0000
 BRION: g(F)=  0.253E-03 g(S)=  0.000E+00 retain N=  2 mean eig= 0.15
 eig:   0.101  0.207
 bond charge predicted
       N       E                     dE             d eps       ncg     rms          rms(c)
DAV:   1    -0.877364736911E+03   -0.44260E-04   -0.24349E-03  1712   0.598E-02    0.111E-02
DAV:   2    -0.877364740472E+03   -0.35609E-05   -0.48239E-05  1536   0.887E-03
 481 F= -.87736474E+03 E0= -.87736474E+03  d E =-.500925E-04  mag=     0.0000
 BRION: g(F)=  0.196E-03 g(S)=  0.000E+00 retain N=  2 mean eig= 1.82
 eig:   0.161  3.471
 bond charge predicted
       N       E                     dE             d eps       ncg     rms          rms(c)
DAV:   1    -0.877364833871E+03   -0.96960E-04   -0.27712E-02  1728   0.164E-01    0.318E-02
DAV:   2    -0.877364876355E+03   -0.42484E-04   -0.50133E-04  1824   0.204E-02    0.178E-02
DAV:   3    -0.877364875343E+03    0.10115E-05   -0.44551E-06  1312   0.324E-03
 482 F= -.87736488E+03 E0= -.87736488E+03  d E =-.134871E-03  mag=    -0.0000
 BRION: g(F)=  0.448E-03 g(S)=  0.000E+00 retain N=  2 mean eig= 0.24
 eig:   0.380  0.091
 bond charge predicted
       N       E                     dE             d eps       ncg     rms          rms(c)
DAV:   1    -0.877364958284E+03   -0.81929E-04   -0.81217E-03  1648   0.870E-02    0.202E-02
DAV:   2    -0.877364971113E+03   -0.12829E-04   -0.15677E-04  1552   0.111E-02    0.127E-02
DAV:   3    -0.877364970552E+03    0.56124E-06   -0.20064E-06  1088   0.287E-03
 483 F= -.87736497E+03 E0= -.87736497E+03  d E =-.952082E-04  mag=    -0.0000
 BRION: g(F)=  0.204E-03 g(S)=  0.000E+00 retain N=  1 mean eig= 0.10
 eig:   0.095
 bond charge predicted
       N       E                     dE             d eps       ncg     rms          rms(c)
DAV:   1    -0.877365080352E+03   -0.10924E-03   -0.49374E-02  1728   0.225E-01    0.427E-02
DAV:   2    -0.877365157813E+03   -0.77461E-04   -0.91900E-04  1888   0.296E-02    0.238E-02
DAV:   3    -0.877365155473E+03    0.23397E-05   -0.80079E-06  1472   0.530E-03
 484 F= -.87736516E+03 E0= -.87736516E+03  d E =-.184922E-03  mag=     0.0000
 BRION: g(F)=  0.298E-03 g(S)=  0.000E+00 retain N=  2 mean eig= 0.14
 eig:   0.138  0.138
 bond charge predicted
       N       E                     dE             d eps       ncg     rms          rms(c)
DAV:   1    -0.877365210920E+03   -0.53106E-04   -0.36293E-03  1728   0.791E-02    0.138E-02
DAV:   2    -0.877365216068E+03   -0.51481E-05   -0.80697E-05  1696   0.119E-02
 485 F= -.87736522E+03 E0= -.87736522E+03  d E =-.605942E-04  mag=    -0.0000
 BRION: g(F)=  0.188E-03 g(S)=  0.000E+00 retain N=  1 mean eig= 0.30
 eig:   0.303
 bond charge predicted
       N       E                     dE             d eps       ncg     rms          rms(c)
DAV:   1    -0.877365337240E+03   -0.12632E-03   -0.45633E-02  1728   0.209E-01    0.416E-02
DAV:   2    -0.877365406094E+03   -0.68854E-04   -0.81194E-04  1824   0.256E-02    0.231E-02
DAV:   3    -0.877365404861E+03    0.12335E-05   -0.65975E-06  1376   0.434E-03
 486 F= -.87736540E+03 E0= -.87736540E+03  d E =-.188793E-03  mag=    -0.0000
 BRION: g(F)=  0.253E-03 g(S)=  0.000E+00 retain N=  2 mean eig= 0.18
 eig:   0.303  0.058
 bond charge predicted
       N       E                     dE             d eps       ncg     rms          rms(c)
DAV:   1    -0.877365415633E+03   -0.95390E-05   -0.75642E-05  1376   0.933E-03    0.420E-03
DAV:   2    -0.877365415820E+03   -0.18680E-06   -0.29461E-06   992   0.234E-03
 487 F= -.87736542E+03 E0= -.87736542E+03  d E =-.109593E-04  mag=    -0.0000
 BRION: g(F)=  0.207E-03 g(S)=  0.000E+00 retain N=  3 mean eig= 2.08
 eig:   5.842  0.301  0.085
 bond charge predicted
       N       E                     dE             d eps       ncg     rms          rms(c)
DAV:   1    -0.877365487398E+03   -0.71765E-04   -0.17030E-02  1728   0.131E-01    0.247E-02
DAV:   2    -0.877365513760E+03   -0.26362E-04   -0.31839E-04  1968   0.171E-02    0.136E-02
DAV:   3    -0.877365512803E+03    0.95650E-06   -0.33738E-06  1280   0.322E-03
 488 F= -.87736551E+03 E0= -.87736551E+03  d E =-.969834E-04  mag=    -0.0000
 BRION: g(F)=  0.524E-03 g(S)=  0.000E+00 retain N=  2 mean eig= 3.63
 eig:   0.067  7.186
 bond charge predicted
       N       E                     dE             d eps       ncg     rms          rms(c)
DAV:   1    -0.877365631196E+03   -0.11744E-03   -0.34709E-02  1728   0.182E-01    0.369E-02
DAV:   2    -0.877365684145E+03   -0.52949E-04   -0.63535E-04  1888   0.235E-02    0.204E-02
DAV:   3    -0.877365682924E+03    0.12208E-05   -0.57925E-06  1344   0.443E-03
 489 F= -.87736568E+03 E0= -.87736568E+03  d E =-.170120E-03  mag=    -0.0000
 BRION: g(F)=  0.481E-03 g(S)=  0.000E+00 retain N=  2 mean eig= 0.46
 eig:   0.221  0.698
 bond charge predicted
       N       E                     dE             d eps       ncg     rms          rms(c)
DAV:   1    -0.877365391648E+03    0.29250E-03   -0.56754E-02  1728   0.226E-01    0.419E-02
DAV:   2    -0.877365484746E+03   -0.93098E-04   -0.10654E-03  1824   0.288E-02    0.232E-02
DAV:   3    -0.877365482185E+03    0.25608E-05   -0.80890E-06  1328   0.431E-03
 490 F= -.87736548E+03 E0= -.87736548E+03  d E =0.200739E-03  mag=    -0.0000
 BRION: g(F)=  0.210E-03 g(S)=  0.000E+00 retain N=  2 mean eig= 0.14
 eig:   0.206  0.076
 bond charge predicted
       N       E                     dE             d eps       ncg     rms          rms(c)
DAV:   1    -0.877365589819E+03   -0.10507E-03   -0.52996E-02  1728   0.247E-01    0.417E-02
DAV:   2    -0.877365677422E+03   -0.87602E-04   -0.10393E-03  1984   0.335E-02    0.243E-02
DAV:   3    -0.877365673373E+03    0.40485E-05   -0.93221E-06  1472   0.611E-03
 491 F= -.87736567E+03 E0= -.87736567E+03  d E =-.191188E-03  mag=     0.0000
 BRION: g(F)=  0.310E-03 g(S)=  0.000E+00 retain N=  3 mean eig= 0.18
 eig:   0.275  0.133  0.133
 bond charge predicted
       N       E                     dE             d eps       ncg     rms          rms(c)
DAV:   1    -0.877365739268E+03   -0.61846E-04   -0.53446E-03  1728   0.910E-02    0.151E-02
DAV:   2    -0.877365746781E+03   -0.75125E-05   -0.10672E-04  1840   0.132E-02    0.871E-03
DAV:   3    -0.877365745897E+03    0.88383E-06   -0.22109E-06   976   0.326E-03
 492 F= -.87736575E+03 E0= -.87736575E+03  d E =-.725234E-04  mag=    -0.0000
 BRION: g(F)=  0.191E-03 g(S)=  0.000E+00 retain N=  2 mean eig= 1.63
 eig:   0.220  3.040
 bond charge predicted
       N       E                     dE             d eps       ncg     rms          rms(c)
DAV:   1    -0.877365828894E+03   -0.82113E-04   -0.13888E-02  1696   0.115E-01    0.221E-02
DAV:   2    -0.877365850167E+03   -0.21273E-04   -0.24762E-04  1808   0.143E-02    0.120E-02
DAV:   3    -0.877365849948E+03    0.21874E-06   -0.21607E-06  1232   0.249E-03
 493 F= -.87736585E+03 E0= -.87736585E+03  d E =-.104051E-03  mag=     0.0000
 BRION: g(F)=  0.225E-03 g(S)=  0.000E+00 retain N=  3 mean eig= 2.07
 eig:   5.595  0.252  0.356
 bond charge predicted
       N       E                     dE             d eps       ncg     rms          rms(c)
DAV:   1    -0.877365854167E+03   -0.40000E-05   -0.92963E-05  1632   0.145E-02    0.319E-03
DAV:   2    -0.877365854344E+03   -0.17785E-06   -0.39260E-06   992   0.270E-03
 494 F= -.87736585E+03 E0= -.87736585E+03  d E =-.439657E-05  mag=     0.0000
 BRION: g(F)=  0.188E-03 g(S)=  0.000E+00 retain N=  1 mean eig= 0.13
 eig:   0.125
 bond charge predicted
       N       E                     dE             d eps       ncg     rms          rms(c)
DAV:   1    -0.877365971549E+03   -0.11738E-03   -0.40054E-02  1728   0.193E-01    0.376E-02
DAV:   2    -0.877366033723E+03   -0.62174E-04   -0.71803E-04  1792   0.237E-02    0.205E-02
DAV:   3    -0.877366032877E+03    0.84621E-06   -0.51316E-06  1312   0.374E-03
 495 F= -.87736603E+03 E0= -.87736603E+03  d E =-.178532E-03  mag=     0.0000
 BRION: g(F)=  0.230E-03 g(S)=  0.000E+00 retain N=  2 mean eig= 1.26
 eig:   0.091  2.436
 bond charge predicted
       N       E                     dE             d eps       ncg     rms          rms(c)
DAV:   1    -0.877366005092E+03    0.28630E-04   -0.85422E-04  1632   0.295E-02    0.450E-03
DAV:   2    -0.877366006833E+03   -0.17409E-05   -0.19509E-05  1056   0.438E-03
 496 F= -.87736601E+03 E0= -.87736601E+03  d E =0.260431E-04  mag=     0.0000
 BRION: g(F)=  0.245E-03 g(S)=  0.000E+00 retain N=  1 mean eig= 0.04
 eig:   0.038
 bond charge predicted
       N       E                     dE             d eps       ncg     rms          rms(c)
DAV:   1    -0.877366035285E+03   -0.30192E-04   -0.73665E-02  1728   0.263E-01    0.574E-02
DAV:   2    -0.877366164993E+03   -0.12971E-03   -0.15675E-03  1760   0.346E-02    0.386E-02
DAV:   3    -0.877366155502E+03    0.94907E-05   -0.13872E-05  1456   0.647E-03
 497 F= -.87736616E+03 E0= -.87736616E+03  d E =-.148668E-03  mag=    -0.0000
 BRION: g(F)=  0.234E-02 g(S)=  0.000E+00 retain N=  2 mean eig= 0.87
 eig:   0.086  1.656
 bond charge predicted
       N       E                     dE             d eps       ncg     rms          rms(c)
DAV:   1    -0.877366213272E+03   -0.48280E-04   -0.53165E-03  1728   0.892E-02    0.192E-02
DAV:   2    -0.877366230922E+03   -0.17650E-04   -0.25434E-04  1856   0.168E-02    0.195E-02
DAV:   3    -0.877366227169E+03    0.37528E-05   -0.37783E-06  1312   0.353E-03
 498 F= -.87736623E+03 E0= -.87736623E+03  d E =-.716673E-04  mag=     0.0000
 BRION: g(F)=  0.253E-03 g(S)=  0.000E+00 retain N=  1 mean eig= 0.10
 eig:   0.099
 bond charge predicted
       N       E                     dE             d eps       ncg     rms          rms(c)
DAV:   1    -0.877366246818E+03   -0.15896E-04   -0.53845E-02  1728   0.288E-01    0.422E-02
DAV:   2    -0.877366329937E+03   -0.83119E-04   -0.11401E-03  2080   0.426E-02    0.254E-02
DAV:   3    -0.877366318807E+03    0.11130E-04   -0.18019E-05  1616   0.987E-03    0.148E-02
DAV:   4    -0.877366314415E+03    0.43913E-05   -0.16999E-05  1592   0.992E-03
 499 F= -.87736631E+03 E0= -.87736631E+03  d E =-.872464E-04  mag=    -0.0000
 BRION: g(F)=  0.140E-02 g(S)=  0.000E+00 retain N=  2 mean eig= 0.40
 eig:   0.047  0.746
 bond charge predicted
       N       E                     dE             d eps       ncg     rms          rms(c)
DAV:   1    -0.877366445007E+03   -0.12620E-03   -0.97535E-03  1728   0.156E-01    0.228E-02
DAV:   2    -0.877366458480E+03   -0.13473E-04   -0.29701E-04  2112   0.267E-02    0.165E-02
DAV:   3    -0.877366452506E+03    0.59739E-05   -0.10937E-05  1616   0.767E-03
 500 F= -.87736645E+03 E0= -.87736645E+03  d E =-.138090E-03  mag=    -0.0000
 BRION: g(F)=  0.191E-03 g(S)=  0.000E+00 retain N=  1 mean eig= 0.15
 eig:   0.153
--------------------------------------------------------
>>>  Job finished at Wed Apr  6 05:18:11 EDT 2022
