 vasp.5.4.4.18Apr17-6-g9f103f2a35 (build Dec 31 2018 11:41:54) complex          
  
 executed on             LinuxIFC date 2022.06.28  11:58:36
 running on   16 total cores
 distrk:  each k-point on   16 cores,    1 groups
 distr:  one band on NCORES_PER_BAND=   4 cores,    4 groups


--------------------------------------------------------------------------------------------------------


 INCAR:
 POTCAR:   PAW_PBE O 08Apr2002                    
 POTCAR:   PAW_PBE Si 05Jan2001                   
 POTCAR:   PAW_PBE Al 04Jan2001                   
 POTCAR:   PAW_PBE Ag 06Sep2000                   
 POTCAR:    PAW_PBE S 17Jan2003                   
 POTCAR:   PAW_PBE O 08Apr2002                    
   VRHFIN =O: s2p4                                                              
   LEXCH  = PE                                                                  
   EATOM  =   432.3788 eV,   31.7789 Ry                                         
                                                                                
   TITEL  = PAW_PBE O 08Apr2002                                                 
   LULTRA =        F    use ultrasoft PP ?                                      
   IUNSCR =        0    unscreen: 0-lin 1-nonlin 2-no                           
   RPACOR =     .000    partial core radius                                     
   POMASS =   16.000; ZVAL   =    6.000    mass and valenz                      
   RCORE  =    1.520    outmost cutoff radius                                   
   RWIGS  =    1.550; RWIGS  =     .820    wigner-seitz radius (au A)           
   ENMAX  =  400.000; ENMIN  =  300.000 eV                                      
   ICORE  =        2    local potential                                         
   LCOR   =        T    correct aug charges                                     
   LPAW   =        T    paw PP                                                  
   EAUG   =  605.392                                                            
   DEXC   =     .000                                                            
   RMAX   =    2.264    core radius for proj-oper                               
   RAUG   =    1.300    factor for augmentation sphere                          
   RDEP   =    1.550    radius for radial grids                                 
   QCUT   =   -5.520; QGAM   =   11.041    optimization parameters              
                                                                                
   Description                                                                  
     l     E      TYP  RCUT    TYP  RCUT                                        
     0   .000     23  1.200                                                     
     0  -.700     23  1.200                                                     
     1   .000     23  1.520                                                     
     1   .600     23  1.520                                                     
     2   .000      7  1.500                                                     
  local pseudopotential read in
  atomic valenz-charges read in
  non local Contribution for L=           0  read in
    real space projection operators read in
  non local Contribution for L=           0  read in
    real space projection operators read in
  non local Contribution for L=           1  read in
    real space projection operators read in
  non local Contribution for L=           1  read in
    real space projection operators read in
    PAW grid and wavefunctions read in
 
   number of l-projection  operators is LMAX  =           4
   number of lm-projection operators is LMMAX =           8
 
 POTCAR:   PAW_PBE Si 05Jan2001                   
   VRHFIN =Si: s2p2                                                             
   LEXCH  = PE                                                                  
   EATOM  =   103.0669 eV,    7.5752 Ry                                         
                                                                                
   TITEL  = PAW_PBE Si 05Jan2001                                                
   LULTRA =        F    use ultrasoft PP ?                                      
   IUNSCR =        1    unscreen: 0-lin 1-nonlin 2-no                           
   RPACOR =    1.500    partial core radius                                     
   POMASS =   28.085; ZVAL   =    4.000    mass and valenz                      
   RCORE  =    1.900    outmost cutoff radius                                   
   RWIGS  =    2.480; RWIGS  =    1.312    wigner-seitz radius (au A)           
   ENMAX  =  245.345; ENMIN  =  184.009 eV                                      
   ICORE  =        2    local potential                                         
   LCOR   =        T    correct aug charges                                     
   LPAW   =        T    paw PP                                                  
   EAUG   =  322.069                                                            
   DEXC   =    -.007                                                            
   RMAX   =    2.944    core radius for proj-oper                               
   RAUG   =    1.300    factor for augmentation sphere                          
   RDEP   =    1.993    radius for radial grids                                 
   QCUT   =   -4.246; QGAM   =    8.493    optimization parameters              
                                                                                
   Description                                                                  
     l     E      TYP  RCUT    TYP  RCUT                                        
     0   .000     23  1.900                                                     
     0   .000     23  1.900                                                     
     1   .000     23  1.900                                                     
     1   .000     23  1.900                                                     
     2   .000      7  1.900                                                     
  local pseudopotential read in
  partial core-charges read in
  atomic valenz-charges read in
  non local Contribution for L=           0  read in
    real space projection operators read in
  non local Contribution for L=           0  read in
    real space projection operators read in
  non local Contribution for L=           1  read in
    real space projection operators read in
  non local Contribution for L=           1  read in
    real space projection operators read in
    PAW grid and wavefunctions read in
 
   number of l-projection  operators is LMAX  =           4
   number of lm-projection operators is LMMAX =           8
 
 POTCAR:   PAW_PBE Al 04Jan2001                   
   VRHFIN =Al: s2p1                                                             
   LEXCH  = PE                                                                  
   EATOM  =    53.5387 eV,    3.9350 Ry                                         
                                                                                
   TITEL  = PAW_PBE Al 04Jan2001                                                
   LULTRA =        F    use ultrasoft PP ?                                      
   IUNSCR =        1    unscreen: 0-lin 1-nonlin 2-no                           
   RPACOR =    1.500    partial core radius                                     
   POMASS =   26.982; ZVAL   =    3.000    mass and valenz                      
   RCORE  =    1.900    outmost cutoff radius                                   
   RWIGS  =    2.650; RWIGS  =    1.402    wigner-seitz radius (au A)           
   ENMAX  =  240.300; ENMIN  =  180.225 eV                                      
   ICORE  =        2    local potential                                         
   LCOR   =        T    correct aug charges                                     
   LPAW   =        T    paw PP                                                  
   EAUG   =  291.052                                                            
   DEXC   =    -.041                                                            
   RMAX   =    2.974    core radius for proj-oper                               
   RAUG   =    1.300    factor for augmentation sphere                          
   RDEP   =    1.966    radius for radial grids                                 
   QCUT   =   -4.203; QGAM   =    8.405    optimization parameters              
                                                                                
   Description                                                                  
     l     E      TYP  RCUT    TYP  RCUT                                        
     0   .000     23  1.900                                                     
     0   .000     23  1.900                                                     
     1   .000     23  1.900                                                     
     1  1.000     23  1.900                                                     
     2   .000      7  1.900                                                     
  local pseudopotential read in
  partial core-charges read in
  atomic valenz-charges read in
  non local Contribution for L=           0  read in
    real space projection operators read in
  non local Contribution for L=           0  read in
    real space projection operators read in
  non local Contribution for L=           1  read in
    real space projection operators read in
  non local Contribution for L=           1  read in
    real space projection operators read in
    PAW grid and wavefunctions read in
 
   number of l-projection  operators is LMAX  =           4
   number of lm-projection operators is LMMAX =           8
 
 POTCAR:   PAW_PBE Ag 06Sep2000                   
   VRHFIN =Ag : s1 d10                                                          
   LEXCH  = PE                                                                  
   EATOM  =  1037.4134 eV,   76.2477 Ry                                         
                                                                                
   TITEL  = PAW_PBE Ag 06Sep2000                                                
   LULTRA =        F    use ultrasoft PP ?                                      
   IUNSCR =        1    unscreen: 0-lin 1-nonlin 2-no                           
   RPACOR =    2.000    partial core radius                                     
   POMASS =  107.868; ZVAL   =   11.000    mass and valenz                      
   RCORE  =    2.400    outmost cutoff radius                                   
   RWIGS  =    2.840; RWIGS  =    1.503    wigner-seitz radius (au A)           
   ENMAX  =  249.846; ENMIN  =  187.385 eV                                      
   RCLOC  =    1.962    cutoff for local pot                                    
   LCOR   =        T    correct aug charges                                     
   LPAW   =        T    paw PP                                                  
   EAUG   =  412.496                                                            
   DEXC   =    -.047                                                            
   RMAX   =    2.917    core radius for proj-oper                               
   RAUG   =    1.300    factor for augmentation sphere                          
   RDEP   =    2.416    radius for radial grids                                 
   QCUT   =   -4.285; QGAM   =    8.570    optimization parameters              
                                                                                
   Description                                                                  
     l     E      TYP  RCUT    TYP  RCUT                                        
     2   .000     23  2.400                                                     
     2   .000     23  2.400                                                     
     0   .000     23  2.400                                                     
     0   .000     23  2.400                                                     
     1  -.200     23  2.400                                                     
     1  1.500     23  2.400                                                     
     3   .000      7   .000                                                     
  local pseudopotential read in
  partial core-charges read in
  atomic valenz-charges read in
  non local Contribution for L=           2  read in
    real space projection operators read in
  non local Contribution for L=           2  read in
    real space projection operators read in
  non local Contribution for L=           0  read in
    real space projection operators read in
  non local Contribution for L=           0  read in
    real space projection operators read in
  non local Contribution for L=           1  read in
    real space projection operators read in
  non local Contribution for L=           1  read in
    real space projection operators read in
    PAW grid and wavefunctions read in
 
   number of l-projection  operators is LMAX  =           6
   number of lm-projection operators is LMMAX =          18
 
 POTCAR:    PAW_PBE S 17Jan2003                   
   VRHFIN =S : s2p4                                                             
   LEXCH  = PE                                                                  
   EATOM  =   276.8230 eV,   20.3459 Ry                                         
                                                                                
   TITEL  = PAW_PBE S 17Jan2003                                                 
   LULTRA =        F    use ultrasoft PP ?                                      
   IUNSCR =        1    unscreen: 0-lin 1-nonlin 2-no                           
   RPACOR =    1.500    partial core radius                                     
   POMASS =   32.066; ZVAL   =    6.000    mass and valenz                      
   RCORE  =    1.900    outmost cutoff radius                                   
   RWIGS  =    2.200; RWIGS  =    1.164    wigner-seitz radius (au A)           
   ENMAX  =  280.000; ENMIN  =  194.016 eV                                      
   ICORE  =        2    local potential                                         
   LCOR   =        T    correct aug charges                                     
   LPAW   =        T    paw PP                                                  
   EAUG   =  335.092                                                            
   DEXC   =     .000                                                            
   RMAX   =    2.867    core radius for proj-oper                               
   RAUG   =    1.300    factor for augmentation sphere                          
   RDEP   =    1.954    radius for radial grids                                 
   QCUT   =   -4.360; QGAM   =    8.721    optimization parameters              
                                                                                
   Description                                                                  
     l     E      TYP  RCUT    TYP  RCUT                                        
     0   .000     23  1.900                                                     
     0   .000     23  1.900                                                     
     1   .000     23  1.900                                                     
     1   .000     23  1.900                                                     
     2   .000     23  1.900                                                     
  local pseudopotential read in
  partial core-charges read in
  atomic valenz-charges read in
  non local Contribution for L=           0  read in
    real space projection operators read in
  non local Contribution for L=           0  read in
    real space projection operators read in
  non local Contribution for L=           1  read in
    real space projection operators read in
  non local Contribution for L=           1  read in
    real space projection operators read in
    PAW grid and wavefunctions read in
 
   number of l-projection  operators is LMAX  =           4
   number of lm-projection operators is LMMAX =           8
 
 Optimization of the real space projectors (new method)

 maximal supplied QI-value         = 24.76
 optimisation between [QCUT,QGAM] = [ 10.15, 20.30] = [ 28.85,115.39] Ry 
 Optimized for a Real-space Cutoff    1.51 Angstroem

   l    n(q)    QCUT    max X(q) W(low)/X(q) W(high)/X(q)  e(spline) 
   0      9    10.150     4.192    0.32E-04    0.13E-04    0.13E-06
   0      9    10.150     8.473    0.18E-03    0.20E-03    0.43E-06
   1      9    10.150     2.474    0.32E-04    0.33E-04    0.64E-07
   1      9    10.150     3.912    0.13E-03    0.16E-03    0.33E-06
 Optimization of the real space projectors (new method)

 maximal supplied QI-value         = 19.84
 optimisation between [QCUT,QGAM] = [ 10.12, 20.44] = [ 28.68,116.96] Ry 
 Optimized for a Real-space Cutoff    1.38 Angstroem

   l    n(q)    QCUT    max X(q) W(low)/X(q) W(high)/X(q)  e(spline) 
   0      8    10.119     8.708    0.16E-04    0.67E-05    0.60E-08
   0      8    10.119   106.241    0.56E-04    0.11E-03    0.54E-07
   1      8    10.119     5.901    0.16E-04    0.16E-05    0.22E-07
   1      8    10.119    73.241    0.22E-03    0.17E-03    0.18E-06
 Optimization of the real space projectors (new method)

 maximal supplied QI-value         = 19.84
 optimisation between [QCUT,QGAM] = [ 10.12, 20.44] = [ 28.68,116.96] Ry 
 Optimized for a Real-space Cutoff    1.26 Angstroem

   l    n(q)    QCUT    max X(q) W(low)/X(q) W(high)/X(q)  e(spline) 
   0      8    10.119    13.410    0.28E-04    0.17E-04    0.51E-08
   0      8    10.119   140.052    0.10E-03    0.16E-03    0.42E-07
   1      7    10.119     9.624    0.38E-04    0.42E-05    0.15E-07
   1      7    10.119    53.353    0.23E-03    0.17E-03    0.13E-06
 Optimization of the real space projectors (new method)

 maximal supplied QI-value         = 15.68
 optimisation between [QCUT,QGAM] = [ 10.20, 20.39] = [ 29.11,116.42] Ry 
 Optimized for a Real-space Cutoff    1.51 Angstroem

   l    n(q)    QCUT    max X(q) W(low)/X(q) W(high)/X(q)  e(spline) 
   2      8    10.195     3.831    0.11E-04    0.20E-04    0.48E-07
   2      8    10.195    20.184    0.23E-03    0.42E-03    0.20E-06
   0      9    10.195    16.770    0.13E-04    0.90E-05    0.63E-08
   0      9    10.195    80.708    0.19E-03    0.15E-03    0.44E-07
   1      9    10.195     6.696    0.12E-04    0.45E-04    0.30E-07
   1      9    10.195     8.973    0.12E-03    0.15E-03    0.13E-06
 Optimization of the real space projectors (new method)

 maximal supplied QI-value         = 19.84
 optimisation between [QCUT,QGAM] = [ 10.12, 20.44] = [ 28.68,116.96] Ry 
 Optimized for a Real-space Cutoff    1.42 Angstroem

   l    n(q)    QCUT    max X(q) W(low)/X(q) W(high)/X(q)  e(spline) 
   0      9    10.119     5.487    0.15E-04    0.47E-05    0.66E-08
   0      9    10.119    85.627    0.51E-04    0.92E-04    0.63E-07
   1      8    10.119     3.530    0.37E-05    0.76E-05    0.28E-07
   1      8    10.119    42.714    0.16E-03    0.16E-03    0.23E-06
 PAW_PBE O 08Apr2002                    :
 energy of atom  1       EATOM= -432.3788
 kinetic energy error for atom=    0.1156 (will be added to EATOM!!)
 PAW_PBE Si 05Jan2001                   :
 energy of atom  2       EATOM= -103.0669
 kinetic energy error for atom=    0.0012 (will be added to EATOM!!)
 PAW_PBE Al 04Jan2001                   :
 energy of atom  3       EATOM=  -53.5387
 kinetic energy error for atom=    0.0005 (will be added to EATOM!!)
 PAW_PBE Ag 06Sep2000                   :
 energy of atom  4       EATOM=-1037.4134
 kinetic energy error for atom=    0.0091 (will be added to EATOM!!)
  PAW_PBE S 17Jan2003                   :
 energy of atom  5       EATOM= -276.8230
 kinetic energy error for atom=    0.0046 (will be added to EATOM!!)
 
 
 POSCAR: O  C                                    
  positions in direct lattice
  velocities in cartesian coordinates
 exchange correlation table for  LEXCH =        8
   RHO(1)=    0.500       N(1)  =     2000
   RHO(2)=  100.500       N(2)  =     4000

 VTST: version 3.2, (02/03/18)

 CHAIN: initializing optimizer
 
 OPT: Using VASP Dynamics algorithm
 CHAIN: Read ICHAIN            0
 
 POSCAR: O  C                                    
  positions in direct lattice
  velocities in cartesian coordinates
 


--------------------------------------------------------------------------------------------------------


 ion  position               nearest neighbor table
   1  0.900  0.099  0.118-  75 1.63  82 1.63
   2  0.106  0.891  0.878-  76 1.62  81 1.63
   3  0.894  0.795  0.129-  85 1.62  77 1.64
   4  0.096  0.197  0.864-  78 1.63  84 1.63
   5  0.197  0.105  0.115-  79 1.62  83 1.63
   6  0.803  0.907  0.879-  80 1.60 108 1.72
   7  0.556  0.428  0.454-  86 1.62  92 1.63
   8  0.764  0.235  0.218-  91 1.59 109 1.73
   9  0.566  0.142  0.470-  96 1.64  87 1.64
  10  0.768  0.541  0.205-  95 1.63  88 1.63
  11  0.866  0.428  0.458-  94 1.62  89 1.63
  12  0.465  0.237  0.183-  90 1.63  93 1.64
  13  0.231  0.777  0.774- 104 1.61  97 1.64
  14  0.426  0.571  0.525-  98 1.66 103 1.66 112 2.55
  15  0.234  0.453  0.772- 107 1.62  99 1.62
  16  0.430  0.853  0.530- 100 1.63 110 1.79 112 2.27
  17  0.535  0.758  0.805- 101 1.63 106 1.64
  18  0.125  0.561  0.533- 105 1.65 102 1.68 112 2.44
  19  0.978  0.317  0.159-  75 1.61  91 1.63
  20  0.022  0.670  0.841- 104 1.62  76 1.63
  21  0.678  0.673  0.171-  95 1.61  77 1.63
  22  0.314  0.318  0.818- 107 1.62  78 1.63
  23  0.319  0.016  0.177-  79 1.61  93 1.63
  24  0.664  0.982  0.826- 106 1.62  80 1.63
  25  0.326  0.987  0.838-  81 1.61  97 1.63
  26  0.678  0.005  0.161-  82 1.60 109 1.74 111 2.54
  27  0.673  0.673  0.813- 101 1.62 108 1.78 113 2.27
  28  0.334  0.325  0.156-  83 1.62  90 1.62
  29  0.020  0.339  0.832-  99 1.61  84 1.62
  30  0.988  0.671  0.170-  85 1.62  88 1.62
  31  0.647  0.642  0.503- 103 1.61  86 1.62
  32  0.342  0.995  0.475-  87 1.59 110 1.71
  33  0.995  0.339  0.498- 105 1.60  89 1.63
  34  0.339  0.352  0.480-  98 1.61  92 1.63
  35  0.987  0.645  0.504- 102 1.62  94 1.62
  36  0.651  0.009  0.515- 100 1.61  96 1.64
  37  0.119  0.244  0.129-  83 1.61  75 1.62
  38  0.887  0.750  0.852-  76 1.63 108 1.78 113 2.31
  39  0.762  0.879  0.110-  82 1.60  77 1.61
  40  0.231  0.110  0.870-  78 1.61  81 1.62
  41  0.113  0.884  0.128-  79 1.61  85 1.61
  42  0.877  0.125  0.858-  84 1.61  80 1.62
  43  0.776  0.559  0.466-  86 1.61  94 1.62
  44  0.536  0.087  0.175-  93 1.62 109 1.79 111 2.31
  45  0.416  0.211  0.467-  92 1.60  87 1.64
  46  0.903  0.454  0.197-  88 1.61  91 1.63
  47  0.784  0.209  0.453-  89 1.60  96 1.63
  48  0.548  0.456  0.194-  90 1.61  95 1.62
  49  0.447  0.893  0.807- 106 1.62  97 1.64
  50  0.210  0.429  0.540-  98 1.62 105 1.62
  51  0.123  0.557  0.801-  99 1.61 104 1.62
  52  0.580  0.789  0.520- 103 1.61 100 1.64
  53  0.452  0.536  0.799- 107 1.62 101 1.63
  54  0.203  0.778  0.546- 102 1.58 110 1.74
  55  1.000  0.259  0.994-  84 1.62  75 1.63
  56  0.991  0.732  0.001-  76 1.62  85 1.63
  57  0.736  0.716  0.998-  77 1.60 108 1.72
  58  0.256  0.267  0.991-  78 1.63  83 1.63
  59  0.268  0.001  0.003-  81 1.63  79 1.64
  60  0.662  0.591  0.333-  86 1.62  95 1.63
  61  0.633  0.051  0.341-  96 1.60 109 1.72
  62  0.440  0.108  0.324-  93 1.61  87 1.63
  63  0.923  0.590  0.334-  94 1.62  88 1.63
  64  0.940  0.344  0.329-  89 1.62  91 1.64
  65  0.406  0.324  0.321-  92 1.62  90 1.63
  66  0.361  0.952  0.666-  97 1.59 110 1.74
  67  0.354  0.410  0.654-  98 1.63 107 1.64
  68  0.060  0.409  0.665- 105 1.62  99 1.63
  69  0.576  0.897  0.667- 106 1.61 100 1.62
  70  0.570  0.661  0.660- 103 1.61 101 1.62
  71  0.053  0.639  0.670- 104 1.64 102 1.64
  72  0.733  0.014  0.993-  80 1.66  82 1.67 111 2.49
  73  0.742  0.337  0.797- 114 1.44
  74  0.714  0.374  0.635- 114 1.44
  75  0.997  0.229  0.101-  19 1.61  37 1.62  55 1.63   1 1.63  83 3.09  91 3.10  82 3.12  84 3.14

  76  0.003  0.763  0.895-  56 1.62   2 1.62  38 1.63  20 1.63 104 3.06  85 3.13 108 3.16 113 3.37

  77  0.767  0.765  0.099-  57 1.60  39 1.61  21 1.63   3 1.64  95 3.01 108 3.08  85 3.09
  78  0.223  0.223  0.887-  40 1.61  58 1.63  22 1.63   4 1.63 107 3.07  83 3.11  84 3.12
  79  0.224  0.002  0.106-  41 1.61  23 1.61   5 1.62  59 1.64  93 3.04  81 3.08
  80  0.771  0.004  0.888-   6 1.60  42 1.62  24 1.63  72 1.66 106 3.07  84 3.09  82 3.10 108 3.22

  81  0.232  0.997  0.897-  25 1.61  40 1.62   2 1.63  59 1.63  97 3.07  79 3.08
  82  0.770  0.999  0.098-  26 1.60  39 1.60   1 1.63  72 1.67  80 3.10  75 3.12 109 3.16 111 3.17

  83  0.226  0.234  0.097-  37 1.61  28 1.62   5 1.63  58 1.63  90 3.05  75 3.09  78 3.11
  84  0.998  0.228  0.888-  42 1.61  55 1.62  29 1.62   4 1.63  99 3.06  80 3.09  78 3.12  75 3.14

  85  0.995  0.770  0.107-  41 1.61   3 1.62  30 1.62  56 1.63  88 3.03  77 3.09  76 3.13
  86  0.660  0.554  0.437-  43 1.61  60 1.62   7 1.62  31 1.62 103 3.07  94 3.11  95 3.12  92 3.13

  87  0.440  0.110  0.435-  32 1.59  62 1.63  45 1.64   9 1.64  96 3.03  92 3.04 110 3.06
  88  0.894  0.563  0.227-  46 1.61  30 1.62  63 1.63  10 1.63  85 3.03  91 3.11  94 3.13
  89  0.894  0.328  0.432-  47 1.60  64 1.62  11 1.63  33 1.63 105 3.03  91 3.06  94 3.13
  90  0.439  0.335  0.214-  48 1.61  28 1.62  65 1.63  12 1.63  83 3.05  93 3.06  95 3.13
  91  0.892  0.334  0.226-   8 1.59  19 1.63  46 1.63  64 1.64  89 3.06  75 3.10  88 3.11 109 3.23

  92  0.430  0.327  0.429-  45 1.60  65 1.62   7 1.63  34 1.63  87 3.04  98 3.06  86 3.13
  93  0.441  0.112  0.216-  62 1.61  44 1.62  23 1.63  12 1.64  79 3.04  90 3.06 109 3.07
  94  0.888  0.554  0.439-  43 1.62  63 1.62  35 1.62  11 1.62 102 3.05  86 3.11  89 3.13  88 3.13

  95  0.665  0.565  0.226-  21 1.61  48 1.62  60 1.63  10 1.63  77 3.01  86 3.12  90 3.13
  96  0.657  0.102  0.441-  61 1.60  47 1.63  36 1.64   9 1.64  87 3.03 100 3.04 109 3.12
  97  0.341  0.904  0.767-  66 1.59  25 1.63  13 1.64  49 1.64  81 3.07 106 3.08 110 3.12
  98  0.332  0.438  0.551-  34 1.61  50 1.62  67 1.63  14 1.66  92 3.06 103 3.10 107 3.10
  99  0.110  0.439  0.768-  29 1.61  51 1.61  15 1.62  68 1.63  84 3.06 104 3.07 105 3.08
 100  0.559  0.890  0.557-  36 1.61  69 1.62  16 1.63  52 1.64  96 3.04 103 3.04 110 3.17 112 3.34

 101  0.557  0.658  0.770-  27 1.62  70 1.62  53 1.63  17 1.63 107 3.07 106 3.08 108 3.14
 102  0.093  0.660  0.564-  54 1.58  35 1.62  71 1.64  18 1.68  94 3.05 104 3.06 105 3.13 112 3.26

 103  0.557  0.667  0.552-  31 1.61  70 1.61  52 1.61  14 1.66 100 3.04  86 3.07  98 3.10
 104  0.110  0.664  0.771-  13 1.61  51 1.62  20 1.62  71 1.64  76 3.06 102 3.06  99 3.07
 105  0.095  0.432  0.559-  33 1.60  68 1.62  50 1.62  18 1.65  89 3.03  99 3.08 102 3.13
 106  0.555  0.882  0.774-  69 1.61  49 1.62  24 1.62  17 1.64  80 3.07  97 3.08 101 3.08
 107  0.338  0.428  0.761-  22 1.62  15 1.62  53 1.62  67 1.64  78 3.07 101 3.07  98 3.10
 108  0.775  0.770  0.891-  57 1.72   6 1.72  38 1.78  27 1.78 113 3.02  77 3.08 101 3.14  76 3.16
                            80 3.22
 109  0.657  0.096  0.230-  61 1.72   8 1.73  26 1.74  44 1.79  93 3.07 111 3.09  96 3.12  82 3.16
                            91 3.23
 110  0.333  0.901  0.556-  32 1.71  54 1.74  66 1.74  16 1.79  87 3.06  97 3.12 100 3.17 112 3.24

 111  0.565  0.028  0.035-  44 2.31  72 2.49  26 2.54 109 3.09  82 3.17
 112  0.320  0.673  0.479-  16 2.27  18 2.44  14 2.55 110 3.24 102 3.26 100 3.34
 113  0.771  0.586  0.775-  27 2.27  38 2.31 114 2.33 108 3.02  76 3.37
 114  0.742  0.411  0.727-  74 1.44  73 1.44 113 2.33
 
  LATTYP: Found a hexagonal cell.
 ALAT       =    13.6750001907
 C/A-ratio  =     1.0798537472
  
  Lattice vectors:
  
 A1 = (  13.6750001907,   0.0000000000,   0.0000000000)
 A2 = (  -6.8375000954,  11.8428975619,   0.0000000000)
 A3 = (   0.0000000000,   0.0000000000,  14.7670001984)


Analysis of symmetry for initial positions (statically):
=====================================================================
 Subroutine PRICEL returns:
 Original cell was already a primitive cell.
 

 Routine SETGRP: Setting up the symmetry group for a 
 hexagonal supercell.


 Subroutine GETGRP returns: Found  1 space group operations
 (whereof  1 operations were pure point group operations)
 out of a pool of 24 trial point group operations.


The static configuration has the point symmetry C_1 .


Analysis of symmetry for dynamics (positions and initial velocities):
=====================================================================
 Subroutine PRICEL returns:
 Original cell was already a primitive cell.
 

 Routine SETGRP: Setting up the symmetry group for a 
 hexagonal supercell.


 Subroutine GETGRP returns: Found  1 space group operations
 (whereof  1 operations were pure point group operations)
 out of a pool of 24 trial point group operations.


The dynamic configuration has the point symmetry C_1 .


Analysis of structural, dynamic, and magnetic symmetry:
=====================================================================
 Subroutine PRICEL returns:
 Original cell was already a primitive cell.
 

 Routine SETGRP: Setting up the symmetry group for a 
 hexagonal supercell.


 Subroutine GETGRP returns: Found  1 space group operations
 (whereof  1 operations were pure point group operations)
 out of a pool of 24 trial point group operations.


The magnetic configuration has the point symmetry C_1 .


 Subroutine INISYM returns: Found  1 space group operations
 (whereof  1 operations are pure point group operations),
 and found     1 'primitive' translations

 
 
 KPOINTS: Gamma points only                       
  k-points in reciprocal lattice
Space group operators:
 irot       det(A)        alpha          n_x          n_y          n_z        tau_x        tau_y        tau_z
    1     1.000000     0.000000     1.000000     0.000000     0.000000     0.000000     0.000000     0.000000

 ----------------------------------------------------------------------------- 
|                                                                             |
|           W    W    AA    RRRRR   N    N  II  N    N   GGGG   !!!           |
|           W    W   A  A   R    R  NN   N  II  NN   N  G    G  !!!           |
|           W    W  A    A  R    R  N N  N  II  N N  N  G       !!!           |
|           W WW W  AAAAAA  RRRRR   N  N N  II  N  N N  G  GGG   !            |
|           WW  WW  A    A  R   R   N   NN  II  N   NN  G    G                |
|           W    W  A    A  R    R  N    N  II  N    N   GGGG   !!!           |
|                                                                             |
|      Your generating k-point grid is not commensurate to the symmetry       |
|      of the lattice.  This can cause   slow convergence with respect        |
|      to k-points for HF type calculations                                   |
|      suggested SOLUTIONS:                                                   |
|       ) if not already the case, use automatic k-point generation           |
|       ) shift your grid to Gamma (G) (e.g. required for hex or fcc lattice) |
|                                                                             |
 ----------------------------------------------------------------------------- 

 
 Subroutine IBZKPT_HF returns following result:
 ==============================================
 
 Found      1 k-points in 1st BZ
 the following      1 k-points will be used (e.g. in the exchange kernel)
 Following reciprocal coordinates:   # in IRBZ
  0.000000  0.000000  0.000000    1.00000000   1 t-inv F


--------------------------------------------------------------------------------------------------------




 Dimension of arrays:
   k-points           NKPTS =      1   k-points in BZ     NKDIM =      1   number of bands    NBANDS=    432
   number of dos      NEDOS =    301   number of ions     NIONS =    114
   non local maximal  LDIM  =      6   non local SUM 2l+1 LMDIM =     18
   total plane-waves  NPLWV = 777600
   max r-space proj   IRMAX =   4725   max aug-charges    IRDMAX= 128081
   dimension x,y,z NGX =    90 NGY =   90 NGZ =   96
   dimension x,y,z NGXF=   180 NGYF=  180 NGZF=  192
   support grid    NGXF=   360 NGYF=  360 NGZF=  384
   ions per type =              74  33   3   3   1
   NGX,Y,Z   is equivalent  to a cutoff of  10.94, 10.94, 10.81 a.u.
   NGXF,Y,Z  is equivalent  to a cutoff of  21.88, 21.88, 21.62 a.u.

 SYSTEM =  SiO2                                    
 POSCAR =  O  C                                    

 Startparameter for this run:
   NWRITE =      2    write-flag & timer
   PREC   = acc       normal or accurate (medium, high low for compatibility)
   ISTART =      0    job   : 0-new  1-cont  2-samecut
   ICHARG =      2    charge: 1-file 2-atom 10-const
   ISPIN  =      2    spin polarized calculation?
   LNONCOLLINEAR =      F non collinear calculations
   LSORBIT =      F    spin-orbit coupling
   INIWAV =      1    electr: 0-lowe 1-rand  2-diag
   LASPH  =      F    aspherical Exc in radial PAW
   METAGGA=      F    non-selfconsistent MetaGGA calc.

 Electronic Relaxation 1
   ENCUT  =  400.0 eV  29.40 Ry    5.42 a.u.  22.30 22.30 24.08*2*pi/ulx,y,z
   ENINI  =  400.0     initial cutoff
   ENAUG  =  605.4 eV  augmentation charge cutoff
   NELM   =    100;   NELMIN=  2; NELMDL= -5     # of ELM steps 
   EDIFF  = 0.1E-04   stopping-criterion for ELM
   LREAL  =      T    real-space projection
   NLSPLINE    = F    spline interpolate recip. space projectors
   LCOMPAT=      F    compatible to vasp.4.4
   GGA_COMPAT  = T    GGA compatible to vasp.4.4-vasp.4.6
   LMAXPAW     = -100 max onsite density
   LMAXMIX     =    2 max onsite mixed and CHGCAR
   VOSKOWN=      0    Vosko Wilk Nusair interpolation
   ROPT   =   -0.00025  -0.00025  -0.00025  -0.00025
   ROPT   =   -0.00025
 Ionic relaxation
   EDIFFG = 0.1E-03   stopping-criterion for IOM
   NSW    =      0    number of steps for IOM
   NBLOCK =      1;   KBLOCK =      1    inner block; outer block 
   IBRION =     -1    ionic relax: 0-MD 1-quasi-New 2-CG
   NFREE  =      0    steps in history (QN), initial steepest desc. (CG)
   ISIF   =      0    stress and relaxation
   IWAVPR =     10    prediction:  0-non 1-charg 2-wave 3-comb
   ISYM   =      3    0-nonsym 1-usesym 2-fastsym
   LCORR  =      T    Harris-Foulkes like correction to forces

   POTIM  = 0.5000    time-step for ionic-motion
   TEIN   =    0.0    initial temperature
   TEBEG  =    0.0;   TEEND  =   0.0 temperature during run
   SMASS  =  -3.00    Nose mass-parameter (am)
   estimated Nose-frequenzy (Omega)   =  0.10E-29 period in steps =****** mass=  -0.427E-26a.u.
   SCALEE = 1.0000    scale energy and forces
   NPACO  =    256;   APACO  = 16.0  distance and # of slots for P.C.
   PSTRESS=    0.0 pullay stress

  Mass of Ions in am
   POMASS =  16.00 28.09 26.98107.87 32.07
  Ionic Valenz
   ZVAL   =   6.00  4.00  3.00 11.00  6.00
  Atomic Wigner-Seitz radii
   RWIGS  =  -1.00 -1.00 -1.00 -1.00 -1.00
  virtual crystal weights 
   VCA    =   1.00  1.00  1.00  1.00  1.00
   NELECT =     624.0000    total number of electrons
   NUPDOWN=      -1.0000    fix difference up-down

 DOS related values:
   EMIN   =  10.00;   EMAX   =-10.00  energy-range for DOS
   EFERMI =   0.00
   ISMEAR =     0;   SIGMA  =   0.05  broadening in eV -4-tet -1-fermi 0-gaus

 Electronic relaxation 2 (details)
   IALGO  =     38    algorithm
   LDIAG  =      T    sub-space diagonalisation (order eigenvalues)
   LSUBROT=      F    optimize rotation matrix (better conditioning)
   TURBO    =      0    0=normal 1=particle mesh
   IRESTART =      0    0=no restart 2=restart with 2 vectors
   NREBOOT  =      0    no. of reboots
   NMIN     =      0    reboot dimension
   EREF     =   0.00    reference energy to select bands
   IMIX   =      1    mixing-type and parameters
     AMIX     =   0.40;   BMIX     =  1.00
     AMIX_MAG =   1.60;   BMIX_MAG =  1.00
     AMIN     =   0.10
     WC   =   100.;   INIMIX=   1;  MIXPRE=   1;  MAXMIX= -45

 Intra band minimization:
   WEIMIN = 0.0000     energy-eigenvalue tresh-hold
   EBREAK =  0.58E-08  absolut break condition
   DEPER  =   0.30     relativ break condition  

   TIME   =   0.40     timestep for ELM

  volume/ion in A,a.u.               =      20.98       141.57
  Fermi-wavevector in a.u.,A,eV,Ry     =   1.046110  1.976860 14.889470  1.094345
  Thomas-Fermi vector in A             =   2.180934
 
 Write flags
   LWAVE        =      F    write WAVECAR
   LDOWNSAMPLE  =      F    k-point downsampling of WAVECAR
   LCHARG       =      F    write CHGCAR
   LVTOT        =      F    write LOCPOT, total local potential
   LVHAR        =      F    write LOCPOT, Hartree potential only
   LELF         =      F    write electronic localiz. function (ELF)
   LORBIT       =     11    0 simple, 1 ext, 2 COOP (PROOUT), +10 PAW based schemes


 Dipole corrections
   LMONO  =      F    monopole corrections only (constant potential shift)
   LDIPOL =      F    correct potential (dipole corrections)
   IDIPOL =      0    1-x, 2-y, 3-z, 4-all directions 
   EPSILON=  1.0000000 bulk dielectric constant

 Exchange correlation treatment:
   GGA     =    PE    GGA type
   LEXCH   =     8    internal setting for exchange type
   VOSKOWN=      0    Vosko Wilk Nusair interpolation
   EXXOEP  =     0    0=HF, 1=EXX-LHF (local Hartree Fock) 2=EXX OEP
   LHFCALC =     T    Hartree Fock is set to
   LSYMGRAD=     F    symmetrize gradient (conserves proper symmetry)
   PRECFOCK=normal    Normal, Fast or Accurate (Low or Medium for compatibility)
   LRHFCALC=     F    long range Hartree Fock
   LRSCOR  =     F    long range correlation only (use DFT for short range part)
   LTHOMAS =     F    Thomas Fermi screening in HF
   LMODELHF=     F    short range full HF, long range fraction AEXX
   ENCUT4O =  -1.0   cutoff for four orbital integrals eV
   LMAXFOCK=     4    L truncation for augmentation on plane wave grid
   LMAXFOCKAE=  -1    L truncation for all-electron charge restoration on plane wave grid
   NMAXFOCKAE=   1    number of basis functions for all-electron charge restoration
   LFOCKAEDFT=     F  apply the AE augmentation even for DFT
   NKREDX  =     1    reduce k-point grid by
   NKREDY  =     1    reduce k-point grid by
   NKREDZ  =     1    reduce k-point grid by
   SHIFTRED=     F    shift reduced grid of Gamma
   HFKIDENT=     F    idential grid for each k-point
   ODDONLY =     F    use only odd q-grid points
   EVENONLY=     F    use only even q-grid points
   HFALPHA =   -1.0000 decay constant for conv. correction
   MCALPHA =    0.0000 extent of test-charge in conv. correction in multipole expansion
   AEXX    =    0.2500 exact exchange contribution
   HFSCREEN=    0.2000 screening length (either q_TF or 0.3 A-1)
   HFSCREENC=   0.2000 screening length for correlation (either q_TF or 0.3 A-1)
   HFRCUT  =    0.0000 spherical cutoff for potential kernel
   ALDAX   =    0.7500 LDA exchange part
   AGGAX   =    0.7500 GGA exchange part
   ALDAC   =    1.0000 LDA correlation
   AGGAC   =    1.0000 GGA correlation
   ENCUTFOCK=  -1.0 apply spherical cutoff to Coloumb kernel
   NBANDSGWLOW=     1    first orbital included in HF term
   NBLOCK_FOCK=    64    blocking factor in FOCK_ACC
 Linear response parameters
   LEPSILON=     F    determine dielectric tensor
   LRPA    =     F    only Hartree local field effects (RPA)
   LNABLA  =     F    use nabla operator in PAW spheres
   LVEL    =     F    velocity operator in full k-point grid
   LINTERFAST=   F  fast interpolation
   KINTER  =     0    interpolate to denser k-point grid
   CSHIFT  =0.1000    complex shift for real part using Kramers Kronig
   OMEGAMAX=  -1.0    maximum frequency
   DEG_THRESHOLD= 0.2000000E-02 threshold for treating states as degnerate
   RTIME   =   -0.100 relaxation time in fs
  (WPLASMAI=    0.000 imaginary part of plasma frequency in eV, 0.658/RTIME)
   DFIELD  = 0.0000000 0.0000000 0.0000000 field for delta impulse in time
 
 Orbital magnetization related:
   ORBITALMAG=     F  switch on orbital magnetization
   LCHIMAG   =     F  perturbation theory with respect to B field
   DQ        =  0.001000  dq finite difference perturbation B field
   LLRAUG    =     F  two centre corrections for induced B field



--------------------------------------------------------------------------------------------------------


 Static calculation
 charge density and potential will be updated during run
 spin polarized calculation
 Variant of blocked Davidson
 Davidson routine will perform the subspace rotation
 perform sub-space diagonalisation
    after iterative eigenvector-optimisation
 Kerker-like  mixing scheme
 using additional bands          120
 real space projection scheme for non local part
 use partial core corrections
 calculate Harris-corrections to forces 
   (improved forces if not selfconsistent)
 use gradient corrections 
 use of overlap-Matrix (Vanderbilt PP)
 Gauss-broadening in eV      SIGMA  =   0.05


--------------------------------------------------------------------------------------------------------


  energy-cutoff  :      400.00
  volume of cell :     2391.54
      direct lattice vectors                 reciprocal lattice vectors
    13.675000191  0.000000000  0.000000000     0.073126142  0.042219398  0.000000000
    -6.837500095 11.842897562  0.000000000     0.000000000  0.084438795  0.000000000
     0.000000000  0.000000000 14.767000198     0.000000000  0.000000000  0.067718561

  length of vectors
    13.675000191 13.675000191 14.767000198     0.084438795  0.084438795  0.067718561


 
 k-points in units of 2pi/SCALE and weight: Gamma points only                       
   0.00000000  0.00000000  0.00000000       1.000
 
 k-points in reciprocal lattice and weights: Gamma points only                       
   0.00000000  0.00000000  0.00000000       1.000
 
 position of ions in fractional coordinates (direct lattice) 
   0.89951443  0.09851480  0.11804283
   0.10646705  0.89064036  0.87799996
   0.89403422  0.79490711  0.12884659
   0.09573922  0.19684359  0.86433813
   0.19703894  0.10510656  0.11488240
   0.80313992  0.90650767  0.87889651
   0.55617359  0.42792233  0.45416564
   0.76429130  0.23463287  0.21762613
   0.56621572  0.14172827  0.47028657
   0.76786735  0.54072058  0.20505101
   0.86639994  0.42829077  0.45846293
   0.46525035  0.23653350  0.18250601
   0.23099263  0.77700764  0.77366569
   0.42550039  0.57129270  0.52452070
   0.23412281  0.45261862  0.77195989
   0.42985757  0.85293631  0.52960446
   0.53466714  0.75809144  0.80455305
   0.12521201  0.56142074  0.53271435
   0.97776025  0.31719588  0.15942788
   0.02232225  0.67034249  0.84093245
   0.67776894  0.67329471  0.17113780
   0.31398424  0.31788813  0.81797419
   0.31903987  0.01573827  0.17696911
   0.66383239  0.98187361  0.82641192
   0.32611248  0.98690927  0.83769732
   0.67816085  0.00519752  0.16146891
   0.67263342  0.67295618  0.81284870
   0.33357379  0.32477263  0.15620491
   0.02007200  0.33919327  0.83195597
   0.98834388  0.67057545  0.17012783
   0.64734362  0.64195665  0.50268228
   0.34224460  0.99464514  0.47481300
   0.99528053  0.33933054  0.49780531
   0.33859164  0.35233146  0.48027234
   0.98746652  0.64467714  0.50391247
   0.65098133  0.00920258  0.51481849
   0.11853675  0.24416988  0.12947170
   0.88710309  0.75030238  0.85215361
   0.76185159  0.87934878  0.11004929
   0.23060735  0.11008801  0.86953391
   0.11269249  0.88408607  0.12776792
   0.87655737  0.12521212  0.85829610
   0.77603115  0.55873639  0.46566301
   0.53641066  0.08727886  0.17459337
   0.41609120  0.21119732  0.46651254
   0.90326201  0.45428211  0.19661287
   0.78427830  0.20876966  0.45265886
   0.54788197  0.45635895  0.19414865
   0.44728801  0.89269499  0.80667116
   0.21026320  0.42882735  0.54009966
   0.12306224  0.55730815  0.80118783
   0.58022947  0.78923779  0.51961665
   0.45223950  0.53581501  0.79938600
   0.20305767  0.77763735  0.54611661
   0.99990889  0.25894232  0.99422624
   0.99077817  0.73239571  0.00128589
   0.73640281  0.71573127  0.99824172
   0.25565172  0.26672254  0.99055407
   0.26840745  0.00111655  0.00295465
   0.66195483  0.59125747  0.33272575
   0.63294943  0.05063865  0.34123964
   0.44042225  0.10847500  0.32437040
   0.92270770  0.59021149  0.33391035
   0.93979248  0.34445518  0.32924408
   0.40560944  0.32351498  0.32123799
   0.36092941  0.95206586  0.66637698
   0.35406522  0.41033122  0.65354255
   0.05990394  0.40857519  0.66505159
   0.57554669  0.89733813  0.66664137
   0.57032228  0.66118117  0.66025118
   0.05252985  0.63925285  0.66986614
   0.73331759  0.01358152  0.99315665
   0.74227474  0.33681757  0.79696034
   0.71404814  0.37405389  0.63485756
   0.99733926  0.22905169  0.10103239
   0.00270810  0.76326668  0.89454704
   0.76665758  0.76454665  0.09917763
   0.22312327  0.22258738  0.88673007
   0.22395050  0.00248568  0.10556287
   0.77139304  0.00358349  0.88821543
   0.23224909  0.99658585  0.89714860
   0.76997675  0.99948970  0.09833124
   0.22626190  0.23446862  0.09741864
   0.99815925  0.22841901  0.88830963
   0.99540424  0.77034080  0.10650191
   0.66034563  0.55417526  0.43680506
   0.44009261  0.11047313  0.43466582
   0.89433062  0.56270455  0.22663847
   0.89385205  0.32848054  0.43245150
   0.43870409  0.33478246  0.21447761
   0.89191767  0.33399069  0.22554978
   0.42962398  0.32740473  0.42903919
   0.44103171  0.11207141  0.21565466
   0.88816559  0.55426334  0.43856312
   0.66503801  0.56527116  0.22550959
   0.65704511  0.10193791  0.44148075
   0.34137942  0.90384235  0.76694823
   0.33232950  0.43835905  0.55100487
   0.10956797  0.43881226  0.76780518
   0.55881140  0.88998742  0.55748069
   0.55692381  0.65794743  0.76959635
   0.09315908  0.66011945  0.56378223
   0.55737286  0.66698379  0.55220262
   0.10992303  0.66380112  0.77063530
   0.09531287  0.43214510  0.55941497
   0.55500619  0.88249405  0.77448166
   0.33782619  0.42849118  0.76087552
   0.77471275  0.76957399  0.89056975
   0.65676987  0.09631674  0.23043224
   0.33263867  0.90082624  0.55609355
   0.56457046  0.02841028  0.03536667
   0.31965523  0.67299942  0.47922758
   0.77127616  0.58577438  0.77450211
   0.74232869  0.41059162  0.72726675
 
 position of ions in cartesian coordinates  (Angst):
  11.62726502  1.16670067  1.74313843
  -4.63381662 10.54776259 12.96542555
   6.79074075  9.41400343  1.90267766
  -0.03668412  2.33119841 12.76368127
   1.97584137  1.24476627  1.69646850
   4.78469232 10.73567746 12.97866498
   4.67975498  5.06784026  6.70666413
   8.84738142  2.77873307  3.21368504
   6.77393302  1.67847342  6.94472183
   6.80340911  6.40369847  3.02798829
   8.91958117  5.07220368  6.77012221
   4.74500075  2.80124199  2.69506626
  -2.15396554  9.20202188 11.42472134
   1.91250399  6.76576092  7.74559729
   0.10684964  5.36031591 11.39953189
   0.04635030 10.10123732  7.82066914
   2.12812299  8.97799927 11.88083506
  -2.12644014  6.64884833  7.86659296
  11.20204475  3.75651830  2.35427155
  -4.27821008  7.93879743 12.41804961
   4.66483772  7.97376031  2.52719190
   2.12017447  3.76471654 12.07902497
   4.25525991  0.18638675  2.61330282
   2.36434718 11.62822864 12.20362492
  -2.28840398 11.68786538 12.37027649
   9.23831170  0.06155376  2.38441144
   4.59692422  7.96975109 12.00333689
   2.34098871  3.84624900  2.30667797
  -2.04474944  4.01703110 12.28549392
   8.93054299  7.94155641  2.51227765
   4.46304552  7.60262679  7.42310926
  -2.12069118 11.77948046  7.01156365
  11.29028881  4.01865685  7.35109110
   2.22117427  4.17262540  7.09218181
   9.09562482  7.63484535  7.44127554
   8.83924713  0.10898526  7.60232472
  -0.04852147  2.89167889  1.91190861
   7.00094227  8.88575423 12.58375259
   4.40577326 10.41403751  1.62509786
   2.40082872  1.30376106 12.84040740
  -4.50386875 10.47014071  1.88674896
  11.13078425  1.48287433 12.67445863
   6.79186599  6.61705787  6.87644583
   6.73864669  1.03363459  2.57822029
   4.24598547  2.50118826  6.88899074
   9.24595423  5.38001652  2.90338235
   9.29754328  2.47243775  6.68441353
   4.37193170  5.40461231  2.86699315
   0.01286162 10.57209528 11.91211323
  -0.05675775  5.07855836  7.97565176
  -2.12771841  6.60014334 11.83114084
   2.53822461  9.34686226  7.67317925
   2.52074010  6.34560233 11.80453320
  -2.54028185  9.20947953  8.06450404
  11.90323614  3.06662743 14.68173913
   8.54113589  8.67368736  0.01898876
   5.17649590  8.47633209 14.74103570
   1.67232199  3.15876771 14.62751213
   3.66283757  0.01322317  0.04363127
   5.00950945  7.00220164  4.91336118
   8.30934187  0.59970833  5.03908580
   5.28107648  1.28465832  4.78997772
   8.58245677  6.98981425  4.93085422
  10.49645010  4.07934738  4.86194746
   3.33467542  3.83135482  4.74372144
  -1.57404063 11.27521841  9.84038902
   2.03620217  4.85951060  9.65086292
  -1.97444648  4.83871406  9.82081697
   1.73505154 10.62708357  9.84429320
   3.27833102  7.83030090  9.74992927
  -3.65254570  7.57060596  9.89191345
   9.93525456  0.16084451 14.66594438
   7.84761701  3.98889601 11.76871344
   7.20701487  4.42988192  9.37494171
  12.07247369  2.71263566  1.49194539
  -5.18180276  9.03928906 13.20977632
   5.25645472  9.05444765  1.46455608
   1.52926953  2.63607957 13.09434314
   3.04552728  0.02943765  1.55884693
  10.52429790  0.04243894 13.11627741
  -3.63814948 11.80246410 13.24819356
   3.69542131 11.83685415  1.45205748
   1.49095233  2.77678790  1.43858114
  12.08801293  2.70514289 13.11766841
   8.34494791  9.12306721  1.57271371
   5.24105326  6.56304084  6.45030048
   5.26290652  1.30832201  6.41871032
   8.38247897  6.66405229  3.34677035
   9.97744133  3.89016134  6.38601139
   3.71020348  3.96479438  3.16719087
   9.91331289  3.95541759  3.33069366
   3.63647805  3.87742072  6.33562187
   5.26482049  1.32725025  3.18457243
   8.35588896  6.56408393  6.47626167
   5.22935332  6.69444850  3.33010023
   8.28809152  1.20724020  6.51934636
  -1.51165852 10.70411232 11.32552469
   1.54732593  5.19144130  8.13668909
  -1.50203694  5.19680869 11.33817922
   1.55645686 10.54002988  8.23231743
   3.11721764  7.79200400 11.36462943
  -3.23961635  7.81772699  8.32537227
   3.06157223  7.89902068  8.15437619
  -3.03554277  7.86132869 11.37997158
  -1.65138861  5.11785010  8.26088103
   1.55565668 10.45128659 11.43677088
   1.68996475  5.07457714 11.23584889
   5.33223471  9.11398598 13.15104368
   8.32276241  1.14066924  3.40279290
  -1.61056571 10.66839293  8.21183357
   7.52624590  0.33646000  0.52225969
  -0.23034832  7.97026324  7.07675382
   6.54196921  6.93726598 11.43707288
   7.34392470  4.86259450 10.73954819
 


--------------------------------------------------------------------------------------------------------


 k-point  1 :   0.0000 0.0000 0.0000  plane waves:   43405

 maximum and minimum number of plane-waves per node :     10852    10850

 maximum number of plane-waves:     43405
 maximum index in each direction: 
   IXMAX=   22   IYMAX=   22   IZMAX=   24
   IXMIN=  -22   IYMIN=  -22   IZMIN=  -24


 real space projection operators:
  total allocation   :      30798.08 KBytes
  max/ min on nodes  :       7867.56       7527.55


 parallel 3D FFT for wavefunctions:
    minimum data exchange during FFTs selected (reduces bandwidth)
 parallel 3D FFT for charge:
    minimum data exchange during FFTs selected (reduces bandwidth)


 FFT grid for exact exchange (Hartree Fock) 
  NGX = 70; NGY = 70; NGZ = 80

 
 Radii for the augmentation spheres in the non-local exchange
 for species   1 augmentation radius   0.820 (default was   0.722)
       energy cutoff for augmentation   1600.0
 for species   2 augmentation radius   1.055 (default was   0.989)
       energy cutoff for augmentation   1600.0
 for species   3 augmentation radius   1.041 (default was   1.041)
       energy cutoff for augmentation   1600.0
 for species   4 augmentation radius   1.279 (default was   1.125)
       energy cutoff for augmentation   1600.0
 for species   5 augmentation radius   1.034 (default was   0.970)
       energy cutoff for augmentation   1600.0

 real space projection operators:
  total allocation   :       4891.48 KBytes
  max/ min on nodes  :       1252.63       1193.21

 Maximum index for augmentation-charges in exchange          376
  SETUP_FOCK is finished

 total amount of memory used by VASP MPI-rank0   222063. kBytes
=======================================================================

   base      :      30000. kBytes
   nonlr-proj:      23232. kBytes
   fftplans  :      69849. kBytes
   grid      :      59474. kBytes
   one-center:        902. kBytes
   HF        :        259. kBytes
   wavefun   :      38347. kBytes
 
     INWAV:  cpu time    0.0001: real time    0.0002
 initial charge density was supplied:
 charge density of overlapping atoms calculated
 number of electron     624.0000000 magnetization     114.0000000
 keeping initial charge density in first step


--------------------------------------------------------------------------------------------------------


 Maximum index for non-local projection operator         1313
 Maximum index for augmentation-charges         7863 (set IRDMAX)


--------------------------------------------------------------------------------------------------------


 First call to EWALD:  gamma=   0.133
 Maximum number of real-space cells 3x 3x 3
 Maximum number of reciprocal cells 3x 3x 3

    FEWALD:  cpu time    0.0066: real time    0.0066


--------------------------------------- Iteration      1(   1)  ---------------------------------------


    POTLOK:  cpu time    1.6921: real time    1.7159
    SETDIJ:  cpu time    0.6977: real time    0.6994
     EDDAV:  cpu time   15.3362: real time   15.3729
       DOS:  cpu time    0.0006: real time    0.0006
    --------------------------------------------
      LOOP:  cpu time   17.7266: real time   17.7888

 eigenvalue-minimisations  :  1744
 total energy-change (2. order) : 0.5456970E+04  (-0.2499772E+05)
 number of electron     624.0000000 magnetization     114.0000000
 augmentation part      624.0000000 magnetization     114.0000000

 Free energy of the ion-electron system (eV)
  ---------------------------------------------------
  alpha Z        PSCENC =       651.60147728
  Ewald energy   TEWEN  =     -7024.30379482
  -Hartree energ DENC   =    -28496.83138101
  -exchange      EXHF   =         0.00000000
  -V(xc)+E(xc)   XCENC  =      1278.05007612
  PAW double counting   =     22424.16227549   -21858.83277747
  entropy T*S    EENTRO =        -0.03336845
  eigenvalues    EBANDS =       -71.70900081
  atomic energy  EATOM  =     38554.86610724
  Solvation  Ediel_sol  =         0.00000000
  ---------------------------------------------------
  free energy    TOTEN  =      5456.96961357 eV

  energy without entropy =     5457.00298201  energy(sigma->0) =     5456.98629779
  exchange ACFDT corr.  =         0.00000000  see jH, gK, PRB 81, 115126


--------------------------------------------------------------------------------------------------------




--------------------------------------- Iteration      1(   2)  ---------------------------------------


     EDDAV:  cpu time   18.0848: real time   18.1374
       DOS:  cpu time    0.0004: real time    0.0004
    --------------------------------------------
      LOOP:  cpu time   18.0852: real time   18.1377

 eigenvalue-minimisations  :  2160
 total energy-change (2. order) :-0.4395578E+04  (-0.4142772E+04)
 number of electron     624.0000000 magnetization     114.0000000
 augmentation part      624.0000000 magnetization     114.0000000

 Free energy of the ion-electron system (eV)
  ---------------------------------------------------
  alpha Z        PSCENC =       651.60147728
  Ewald energy   TEWEN  =     -7024.30379482
  -Hartree energ DENC   =    -28496.83138101
  -exchange      EXHF   =         0.00000000
  -V(xc)+E(xc)   XCENC  =      1278.05007612
  PAW double counting   =     22424.16227549   -21858.83277747
  entropy T*S    EENTRO =        -0.00000000
  eigenvalues    EBANDS =     -4467.32067694
  atomic energy  EATOM  =     38554.86610724
  Solvation  Ediel_sol  =         0.00000000
  ---------------------------------------------------
  free energy    TOTEN  =      1061.39130588 eV

  energy without entropy =     1061.39130588  energy(sigma->0) =     1061.39130588
  exchange ACFDT corr.  =         0.00000000  see jH, gK, PRB 81, 115126


--------------------------------------------------------------------------------------------------------




--------------------------------------- Iteration      1(   3)  ---------------------------------------


     EDDAV:  cpu time   17.4599: real time   17.5074
       DOS:  cpu time    0.0003: real time    0.0003
    --------------------------------------------
      LOOP:  cpu time   17.4602: real time   17.5077

 eigenvalue-minimisations  :  2064
 total energy-change (2. order) :-0.5079632E+03  (-0.5037972E+03)
 number of electron     624.0000000 magnetization     114.0000000
 augmentation part      624.0000000 magnetization     114.0000000

 Free energy of the ion-electron system (eV)
  ---------------------------------------------------
  alpha Z        PSCENC =       651.60147728
  Ewald energy   TEWEN  =     -7024.30379482
  -Hartree energ DENC   =    -28496.83138101
  -exchange      EXHF   =         0.00000000
  -V(xc)+E(xc)   XCENC  =      1278.05007612
  PAW double counting   =     22424.16227549   -21858.83277747
  entropy T*S    EENTRO =        -0.00000000
  eigenvalues    EBANDS =     -4975.28383137
  atomic energy  EATOM  =     38554.86610724
  Solvation  Ediel_sol  =         0.00000000
  ---------------------------------------------------
  free energy    TOTEN  =       553.42815145 eV

  energy without entropy =      553.42815145  energy(sigma->0) =      553.42815145
  exchange ACFDT corr.  =         0.00000000  see jH, gK, PRB 81, 115126


--------------------------------------------------------------------------------------------------------




--------------------------------------- Iteration      1(   4)  ---------------------------------------


     EDDAV:  cpu time   17.7964: real time   17.8493
       DOS:  cpu time    0.0003: real time    0.0003
    --------------------------------------------
      LOOP:  cpu time   17.7967: real time   17.8496

 eigenvalue-minimisations  :  2112
 total energy-change (2. order) :-0.1112743E+02  (-0.1107388E+02)
 number of electron     624.0000000 magnetization     114.0000000
 augmentation part      624.0000000 magnetization     114.0000000

 Free energy of the ion-electron system (eV)
  ---------------------------------------------------
  alpha Z        PSCENC =       651.60147728
  Ewald energy   TEWEN  =     -7024.30379482
  -Hartree energ DENC   =    -28496.83138101
  -exchange      EXHF   =         0.00000000
  -V(xc)+E(xc)   XCENC  =      1278.05007612
  PAW double counting   =     22424.16227549   -21858.83277747
  entropy T*S    EENTRO =        -0.00000000
  eigenvalues    EBANDS =     -4986.41126422
  atomic energy  EATOM  =     38554.86610724
  Solvation  Ediel_sol  =         0.00000000
  ---------------------------------------------------
  free energy    TOTEN  =       542.30071861 eV

  energy without entropy =      542.30071861  energy(sigma->0) =      542.30071861
  exchange ACFDT corr.  =         0.00000000  see jH, gK, PRB 81, 115126


--------------------------------------------------------------------------------------------------------




--------------------------------------- Iteration      1(   5)  ---------------------------------------


     EDDAV:  cpu time 2435.1230: real time 2441.0738
       DOS:  cpu time    0.0003: real time    0.0003
    CHARGE:  cpu time    1.3031: real time    1.3062
    MIXING:  cpu time    0.0139: real time    0.0139
    --------------------------------------------
      LOOP:  cpu time 2436.4403: real time 2442.3942

 eigenvalue-minimisations  :  2184
 total energy-change (2. order) :-0.1849972E+04  (-0.4346414E+02)
 number of electron     624.0000001 magnetization     -68.4000000
 augmentation part       69.9064772 magnetization     -67.3847106

 Free energy of the ion-electron system (eV)
  ---------------------------------------------------
  alpha Z        PSCENC =       651.60147728
  Ewald energy   TEWEN  =     -7024.30379482
  -Hartree energ DENC   =    -28496.83138101
  -exchange      EXHF   =      1784.35545348
  -V(xc)+E(xc)   XCENC  =      1278.05007612
  PAW double counting   =     22424.16227549   -21858.83277747
  entropy T*S    EENTRO =        -0.00000000
  eigenvalues    EBANDS =     -8620.73904210
  atomic energy  EATOM  =     38554.86610724
  Solvation  Ediel_sol  =         0.00000000
  ---------------------------------------------------
  free energy    TOTEN  =     -1307.67160581 eV

  energy without entropy =    -1307.67160581  energy(sigma->0) =    -1307.67160581
  exchange ACFDT corr.  =         0.00000000  see jH, gK, PRB 81, 115126


--------------------------------------------------------------------------------------------------------




--------------------------------------- Iteration      1(   6)  ---------------------------------------


    POTLOK:  cpu time    1.4610: real time    1.4725
    SETDIJ:  cpu time    0.6909: real time    0.6925
     EDDAV:  cpu time 2294.4195: real time 2299.9983
       DOS:  cpu time    0.0003: real time    0.0003
    CHARGE:  cpu time    1.3378: real time    1.3410
    MIXING:  cpu time    0.0066: real time    0.0066
    --------------------------------------------
      LOOP:  cpu time 2297.9161: real time 2303.5113

 eigenvalue-minimisations  :  2000
 total energy-change (2. order) : 0.1906480E+03  (-0.2914944E+02)
 number of electron     624.0000002 magnetization      41.0400000
 augmentation part       63.7018300 magnetization      41.2880675

 Free energy of the ion-electron system (eV)
  ---------------------------------------------------
  alpha Z        PSCENC =       651.60147728
  Ewald energy   TEWEN  =     -7024.30379482
  -Hartree energ DENC   =    -29846.33753799
  -exchange      EXHF   =      1913.90413547
  -V(xc)+E(xc)   XCENC  =      1394.16507948
  PAW double counting   =     26286.44487561   -25740.45016340
  entropy T*S    EENTRO =        -0.00000000
  eigenvalues    EBANDS =     -7306.91376627
  atomic energy  EATOM  =     38554.86610724
  Solvation  Ediel_sol  =         0.00000000
  ---------------------------------------------------
  free energy    TOTEN  =     -1117.02358739 eV

  energy without entropy =    -1117.02358739  energy(sigma->0) =    -1117.02358739
  exchange ACFDT corr.  =         0.00000000  see jH, gK, PRB 81, 115126


--------------------------------------------------------------------------------------------------------




--------------------------------------- Iteration      1(   7)  ---------------------------------------


    POTLOK:  cpu time    1.4995: real time    1.5116
    SETDIJ:  cpu time    0.6930: real time    0.6946
     EDDAV:  cpu time 2187.6808: real time 2193.0173
       DOS:  cpu time    0.0003: real time    0.0003
    CHARGE:  cpu time    1.3317: real time    1.3349
    MIXING:  cpu time    0.0118: real time    0.0119
    --------------------------------------------
      LOOP:  cpu time 2191.2173: real time 2196.5707

 eigenvalue-minimisations  :  1872
 total energy-change (2. order) :-0.3630169E+02  (-0.1532556E+02)
 number of electron     624.0000002 magnetization     -24.6240000
 augmentation part       59.9287131 magnetization     -24.8934699

 Free energy of the ion-electron system (eV)
  ---------------------------------------------------
  alpha Z        PSCENC =       651.60147728
  Ewald energy   TEWEN  =     -7024.30379482
  -Hartree energ DENC   =    -30333.31060901
  -exchange      EXHF   =      1836.74053516
  -V(xc)+E(xc)   XCENC  =      1384.58373116
  PAW double counting   =     27809.94306515   -27267.38420547
  entropy T*S    EENTRO =        -0.00000000
  eigenvalues    EBANDS =     -6766.06158738
  atomic energy  EATOM  =     38554.86610724
  Solvation  Ediel_sol  =         0.00000000
  ---------------------------------------------------
  free energy    TOTEN  =     -1153.32528068 eV

  energy without entropy =    -1153.32528068  energy(sigma->0) =    -1153.32528068
  exchange ACFDT corr.  =        -0.00000000  see jH, gK, PRB 81, 115126


--------------------------------------------------------------------------------------------------------




--------------------------------------- Iteration      1(   8)  ---------------------------------------


    POTLOK:  cpu time    1.5059: real time    1.5173
    SETDIJ:  cpu time    0.6919: real time    0.6936
     EDDAV:  cpu time 2193.8221: real time 2199.1660
       DOS:  cpu time    0.0003: real time    0.0003
    CHARGE:  cpu time    1.3226: real time    1.3258
    MIXING:  cpu time    0.0074: real time    0.0074
    --------------------------------------------
      LOOP:  cpu time 2197.3502: real time 2202.7104

 eigenvalue-minimisations  :  1872
 total energy-change (2. order) :-0.2144619E+02  (-0.4889332E+01)
 number of electron     624.0000003 magnetization      14.7744000
 augmentation part       59.3926822 magnetization      14.7442456

 Free energy of the ion-electron system (eV)
  ---------------------------------------------------
  alpha Z        PSCENC =       651.60147728
  Ewald energy   TEWEN  =     -7024.30379482
  -Hartree energ DENC   =    -30375.68992629
  -exchange      EXHF   =      1789.36982248
  -V(xc)+E(xc)   XCENC  =      1371.20851033
  PAW double counting   =     28146.58461962   -27602.42909571
  entropy T*S    EENTRO =        -0.00000000
  eigenvalues    EBANDS =     -6685.97919070
  atomic energy  EATOM  =     38554.86610724
  Solvation  Ediel_sol  =         0.00000000
  ---------------------------------------------------
  free energy    TOTEN  =     -1174.77147058 eV

  energy without entropy =    -1174.77147058  energy(sigma->0) =    -1174.77147058
  exchange ACFDT corr.  =         0.00000000  see jH, gK, PRB 81, 115126


--------------------------------------------------------------------------------------------------------




--------------------------------------- Iteration      1(   9)  ---------------------------------------


    POTLOK:  cpu time    1.5725: real time    1.5844
    SETDIJ:  cpu time    0.6930: real time    0.6947
     EDDAV:  cpu time 2184.4799: real time 2189.7736
       DOS:  cpu time    0.0003: real time    0.0003
    CHARGE:  cpu time    1.3394: real time    1.3426
    MIXING:  cpu time    0.0068: real time    0.0069
    --------------------------------------------
      LOOP:  cpu time 2188.0920: real time 2193.4024

 eigenvalue-minimisations  :  1856
 total energy-change (2. order) :-0.1373001E+02  (-0.2071862E+01)
 number of electron     624.0000003 magnetization      -8.8646400
 augmentation part       59.6750423 magnetization      -8.9976654

 Free energy of the ion-electron system (eV)
  ---------------------------------------------------
  alpha Z        PSCENC =       651.60147728
  Ewald energy   TEWEN  =     -7024.30379482
  -Hartree energ DENC   =    -30369.54545046
  -exchange      EXHF   =      1781.43838535
  -V(xc)+E(xc)   XCENC  =      1358.34069963
  PAW double counting   =     28264.61270458   -27719.23998571
  entropy T*S    EENTRO =        -0.00000000
  eigenvalues    EBANDS =     -6686.27162157
  atomic energy  EATOM  =     38554.86610724
  Solvation  Ediel_sol  =         0.00000000
  ---------------------------------------------------
  free energy    TOTEN  =     -1188.50147847 eV

  energy without entropy =    -1188.50147847  energy(sigma->0) =    -1188.50147847
  exchange ACFDT corr.  =        -0.00000000  see jH, gK, PRB 81, 115126


--------------------------------------------------------------------------------------------------------




--------------------------------------- Iteration      1(  10)  ---------------------------------------


    POTLOK:  cpu time    1.5509: real time    1.5641
    SETDIJ:  cpu time    0.6922: real time    0.6939
     EDDAV:  cpu time 2183.3319: real time 2188.6352
       DOS:  cpu time    0.0003: real time    0.0003
    CHARGE:  cpu time    1.3109: real time    1.3140
    MIXING:  cpu time    0.0143: real time    0.0143
    --------------------------------------------
      LOOP:  cpu time 2186.9005: real time 2192.2218

 eigenvalue-minimisations  :  1864
 total energy-change (2. order) :-0.4099983E+01  (-0.9235078E+00)
 number of electron     624.0000003 magnetization       5.3187840
 augmentation part       59.8905237 magnetization       5.3012239

 Free energy of the ion-electron system (eV)
  ---------------------------------------------------
  alpha Z        PSCENC =       651.60147728
  Ewald energy   TEWEN  =     -7024.30379482
  -Hartree energ DENC   =    -30389.50970047
  -exchange      EXHF   =      1783.86268834
  -V(xc)+E(xc)   XCENC  =      1356.18283573
  PAW double counting   =     28369.40608306   -27823.74785116
  entropy T*S    EENTRO =        -0.00000000
  eigenvalues    EBANDS =     -6670.95930668
  atomic energy  EATOM  =     38554.86610724
  Solvation  Ediel_sol  =         0.00000000
  ---------------------------------------------------
  free energy    TOTEN  =     -1192.60146148 eV

  energy without entropy =    -1192.60146148  energy(sigma->0) =    -1192.60146148
  exchange ACFDT corr.  =         0.00000000  see jH, gK, PRB 81, 115126


--------------------------------------------------------------------------------------------------------




--------------------------------------- Iteration      1(  11)  ---------------------------------------


    POTLOK:  cpu time    1.6178: real time    1.6304
    SETDIJ:  cpu time    0.6914: real time    0.6931
     EDDAV:  cpu time 2189.3221: real time 2194.6173
       DOS:  cpu time    0.0003: real time    0.0003
    CHARGE:  cpu time    1.3388: real time    1.3420
    MIXING:  cpu time    0.0068: real time    0.0069
    --------------------------------------------
      LOOP:  cpu time 2192.9773: real time 2198.2899

 eigenvalue-minimisations  :  1856
 total energy-change (2. order) :-0.4856328E+01  (-0.3916372E+00)
 number of electron     624.0000003 magnetization      -3.1912704
 augmentation part       59.8828480 magnetization      -3.2235709

 Free energy of the ion-electron system (eV)
  ---------------------------------------------------
  alpha Z        PSCENC =       651.60147728
  Ewald energy   TEWEN  =     -7024.30379482
  -Hartree energ DENC   =    -30419.04067784
  -exchange      EXHF   =      1785.48177787
  -V(xc)+E(xc)   XCENC  =      1353.55865613
  PAW double counting   =     28453.93226477   -27908.35393717
  entropy T*S    EENTRO =        -0.00000000
  eigenvalues    EBANDS =     -6645.19966320
  atomic energy  EATOM  =     38554.86610724
  Solvation  Ediel_sol  =         0.00000000
  ---------------------------------------------------
  free energy    TOTEN  =     -1197.45778974 eV

  energy without entropy =    -1197.45778974  energy(sigma->0) =    -1197.45778974
  exchange ACFDT corr.  =        -0.00000000  see jH, gK, PRB 81, 115126


--------------------------------------------------------------------------------------------------------




--------------------------------------- Iteration      1(  12)  ---------------------------------------


    POTLOK:  cpu time    1.6096: real time    1.6225
    SETDIJ:  cpu time    0.6912: real time    0.6928
     EDDAV:  cpu time 2180.6076: real time 2186.9645
       DOS:  cpu time    0.0004: real time    0.0004
    CHARGE:  cpu time    1.3336: real time    1.3369
    MIXING:  cpu time    0.0115: real time    0.0115
    --------------------------------------------
      LOOP:  cpu time 2184.2538: real time 2190.6286

 eigenvalue-minimisations  :  1872
 total energy-change (2. order) :-0.3930730E+00  (-0.1303290E+00)
 number of electron     624.0000003 magnetization       1.9147622
 augmentation part       59.8470601 magnetization       1.9148581

 Free energy of the ion-electron system (eV)
  ---------------------------------------------------
  alpha Z        PSCENC =       651.60147728
  Ewald energy   TEWEN  =     -7024.30379482
  -Hartree energ DENC   =    -30437.21520459
  -exchange      EXHF   =      1784.78757710
  -V(xc)+E(xc)   XCENC  =      1354.00966891
  PAW double counting   =     28497.49084677   -27951.97511772
  entropy T*S    EENTRO =        -0.00000000
  eigenvalues    EBANDS =     -6627.11242295
  atomic energy  EATOM  =     38554.86610724
  Solvation  Ediel_sol  =         0.00000000
  ---------------------------------------------------
  free energy    TOTEN  =     -1197.85086278 eV

  energy without entropy =    -1197.85086278  energy(sigma->0) =    -1197.85086278
  exchange ACFDT corr.  =        -0.00000000  see jH, gK, PRB 81, 115126


--------------------------------------------------------------------------------------------------------




--------------------------------------- Iteration      1(  13)  ---------------------------------------


    POTLOK:  cpu time    1.7036: real time    1.7153
    SETDIJ:  cpu time    0.6941: real time    0.6959
     EDDAV:  cpu time 2159.5438: real time 2165.3248
       DOS:  cpu time    0.0003: real time    0.0003
    CHARGE:  cpu time    1.3401: real time    1.3433
    MIXING:  cpu time    0.0066: real time    0.0066
    --------------------------------------------
      LOOP:  cpu time 2163.2886: real time 2169.0863

 eigenvalue-minimisations  :  1856
 total energy-change (2. order) :-0.9342288E+00  (-0.5173825E-01)
 number of electron     624.0000003 magnetization      -1.1488573
 augmentation part       59.8196732 magnetization      -1.1543136

 Free energy of the ion-electron system (eV)
  ---------------------------------------------------
  alpha Z        PSCENC =       651.60147728
  Ewald energy   TEWEN  =     -7024.30379482
  -Hartree energ DENC   =    -30447.81918175
  -exchange      EXHF   =      1784.19209631
  -V(xc)+E(xc)   XCENC  =      1353.67482050
  PAW double counting   =     28516.25170720   -27970.73412014
  entropy T*S    EENTRO =        -0.00000000
  eigenvalues    EBANDS =     -6616.51420342
  atomic energy  EATOM  =     38554.86610724
  Solvation  Ediel_sol  =         0.00000000
  ---------------------------------------------------
  free energy    TOTEN  =     -1198.78509160 eV

  energy without entropy =    -1198.78509160  energy(sigma->0) =    -1198.78509160
  exchange ACFDT corr.  =        -0.00000000  see jH, gK, PRB 81, 115126


--------------------------------------------------------------------------------------------------------




--------------------------------------- Iteration      1(  14)  ---------------------------------------


    POTLOK:  cpu time    1.6740: real time    1.6907
    SETDIJ:  cpu time    0.6933: real time    0.6950
     EDDAV:  cpu time 2143.7590: real time 2149.5584
       DOS:  cpu time    0.0003: real time    0.0003
    CHARGE:  cpu time    1.3396: real time    1.3427
    MIXING:  cpu time    0.0069: real time    0.0069
    --------------------------------------------
      LOOP:  cpu time 2147.4731: real time 2153.2940

 eigenvalue-minimisations  :  1824
 total energy-change (2. order) : 0.6185306E-01  (-0.1631592E-01)
 number of electron     624.0000003 magnetization       0.6893144
 augmentation part       59.8176011 magnetization       0.6927033

 Free energy of the ion-electron system (eV)
  ---------------------------------------------------
  alpha Z        PSCENC =       651.60147728
  Ewald energy   TEWEN  =     -7024.30379482
  -Hartree energ DENC   =    -30453.32770648
  -exchange      EXHF   =      1783.70510833
  -V(xc)+E(xc)   XCENC  =      1353.80997397
  PAW double counting   =     28522.30041973   -27976.75595138
  entropy T*S    EENTRO =        -0.00000000
  eigenvalues    EBANDS =     -6610.61887241
  atomic energy  EATOM  =     38554.86610724
  Solvation  Ediel_sol  =         0.00000000
  ---------------------------------------------------
  free energy    TOTEN  =     -1198.72323854 eV

  energy without entropy =    -1198.72323854  energy(sigma->0) =    -1198.72323854
  exchange ACFDT corr.  =        -0.00000000  see jH, gK, PRB 81, 115126


--------------------------------------------------------------------------------------------------------




--------------------------------------- Iteration      1(  15)  ---------------------------------------


    POTLOK:  cpu time    1.7164: real time    1.7299
    SETDIJ:  cpu time    0.6933: real time    0.6950
     EDDAV:  cpu time 2209.0727: real time 2214.9241
       DOS:  cpu time    0.0003: real time    0.0003
    CHARGE:  cpu time    1.3312: real time    1.3344
    MIXING:  cpu time    0.0143: real time    0.0143
    --------------------------------------------
      LOOP:  cpu time 2212.8283: real time 2218.6980

 eigenvalue-minimisations  :  1904
 total energy-change (2. order) :-0.1469123E+00  (-0.7905761E-02)
 number of electron     624.0000003 magnetization      -0.4135886
 augmentation part       59.8159098 magnetization      -0.4143652

 Free energy of the ion-electron system (eV)
  ---------------------------------------------------
  alpha Z        PSCENC =       651.60147728
  Ewald energy   TEWEN  =     -7024.30379482
  -Hartree energ DENC   =    -30458.07617450
  -exchange      EXHF   =      1783.67609036
  -V(xc)+E(xc)   XCENC  =      1353.80660697
  PAW double counting   =     28525.32384353   -27979.75946419
  entropy T*S    EENTRO =        -0.00000000
  eigenvalues    EBANDS =     -6606.00484268
  atomic energy  EATOM  =     38554.86610724
  Solvation  Ediel_sol  =         0.00000000
  ---------------------------------------------------
  free energy    TOTEN  =     -1198.87015081 eV

  energy without entropy =    -1198.87015081  energy(sigma->0) =    -1198.87015081
  exchange ACFDT corr.  =         0.00000000  see jH, gK, PRB 81, 115126


--------------------------------------------------------------------------------------------------------




--------------------------------------- Iteration      1(  16)  ---------------------------------------


    POTLOK:  cpu time    1.7076: real time    1.7193
    SETDIJ:  cpu time    0.6941: real time    0.6957
     EDDAV:  cpu time 2198.8290: real time 2204.9349
       DOS:  cpu time    0.0003: real time    0.0003
    CHARGE:  cpu time    1.3239: real time    1.3270
    MIXING:  cpu time    0.0069: real time    0.0069
    --------------------------------------------
      LOOP:  cpu time 2202.5618: real time 2208.6842

 eigenvalue-minimisations  :  1880
 total energy-change (2. order) : 0.1133153E-01  (-0.2175385E-02)
 number of electron     624.0000003 magnetization       0.2481532
 augmentation part       59.8144971 magnetization       0.2496987

 Free energy of the ion-electron system (eV)
  ---------------------------------------------------
  alpha Z        PSCENC =       651.60147728
  Ewald energy   TEWEN  =     -7024.30379482
  -Hartree energ DENC   =    -30461.85664417
  -exchange      EXHF   =      1783.62004918
  -V(xc)+E(xc)   XCENC  =      1353.87576117
  PAW double counting   =     28526.69250573   -27981.11525501
  entropy T*S    EENTRO =        -0.00000000
  eigenvalues    EBANDS =     -6602.23902587
  atomic energy  EATOM  =     38554.86610724
  Solvation  Ediel_sol  =         0.00000000
  ---------------------------------------------------
  free energy    TOTEN  =     -1198.85881928 eV

  energy without entropy =    -1198.85881928  energy(sigma->0) =    -1198.85881928
  exchange ACFDT corr.  =        -0.00000000  see jH, gK, PRB 81, 115126


--------------------------------------------------------------------------------------------------------




[...]
      4.59692      7.96975     12.00334        -0.441262      0.117038     -0.069017
      2.34099      3.84625      2.30668         0.202061     -0.371671      0.000241
     -2.04475      4.01703     12.28549         0.395180     -0.030051     -0.051773
      8.93054      7.94156      2.51228        -0.436510     -0.042038     -0.026397
      4.46305      7.60263      7.42311        -0.246238     -0.293855     -0.089699
     -2.12069     11.77948      7.01156         0.361719      0.321623      0.008908
     11.29029      4.01866      7.35109        -0.196335      0.393300     -0.006595
      2.22117      4.17263      7.09218         0.263191      0.302743      0.112158
      9.09562      7.63485      7.44128         0.227503     -0.345021     -0.037771
      8.83925      0.10899      7.60232        -0.372835     -0.133395     -0.158997
     -0.04852      2.89168      1.91191         0.007192     -0.123054     -0.346114
      7.00094      8.88575     12.58375         0.301867      0.062319      0.396665
      4.40577     10.41404      1.62510         0.059530      0.040263     -0.145473
      2.40083      1.30376     12.84041        -0.035181     -0.007358      0.281466
     -4.50387     10.47014      1.88675        -0.044448      0.043611     -0.262772
     11.13078      1.48287     12.67446         0.153425     -0.053671      0.350458
      6.79187      6.61706      6.87645        -0.000960     -0.057247     -0.331094
      6.73865      1.03363      2.57822        -0.281526      0.153147      0.377533
      4.24599      2.50119      6.88899         0.131910      0.127118     -0.397673
      9.24595      5.38002      2.90338        -0.104178     -0.030309      0.343644
      9.29754      2.47244      6.68441        -0.106866      0.111083     -0.217843
      4.37193      5.40461      2.86699         0.086934     -0.069134      0.309125
      0.01286     10.57210     11.91211         0.016800     -0.004639     -0.387791
     -0.05676      5.07856      7.97565         0.006212      0.111565      0.178309
     -2.12772      6.60014     11.83114        -0.091652     -0.044550     -0.378274
      2.53822      9.34686      7.67318        -0.182078     -0.163718      0.375803
      2.52074      6.34560     11.80453        -0.115908      0.034562     -0.397414
     -2.54028      9.20948      8.06450        -0.054010     -0.339754      0.153151
     11.90324      3.06663     14.68174         0.148806     -0.288647      0.010603
      8.54114      8.67369      0.01899        -0.090470      0.317211      0.025774
      5.17650      8.47633     14.74104         0.091853      0.388011      0.297032
      1.67232      3.15877     14.62751        -0.134134     -0.353769      0.019487
      3.66284      0.01322      0.04363        -0.401603     -0.005411      0.001807
      5.00951      7.00220      4.91336         0.183491     -0.307206      0.001513
      8.30934      0.59971      5.03909        -0.029739      0.387427      0.259406
      5.28108      1.28466      4.78998        -0.018300      0.064942      0.000482
      8.58246      6.98981      4.93085        -0.171407     -0.305660     -0.004643
     10.49645      4.07935      4.86195        -0.427183     -0.103076      0.019954
      3.33468      3.83135      4.74372         0.281945      0.061941      0.001372
     -1.57404     11.27522      9.84039         0.029805     -0.384462      0.276124
      2.03620      4.85951      9.65086        -0.309175      0.229074     -0.011980
     -1.97445      4.83871      9.82082         0.297705      0.267271     -0.038504
      1.73505     10.62708      9.84429        -0.138418     -0.134115      0.013585
      3.27833      7.83030      9.74993        -0.178805      0.001715     -0.053111
     -3.65255      7.57061      9.89191         0.381138      0.171726     -0.021300
      9.93525      0.16084     14.66594         0.414682     -0.080882      0.030866
      7.84762      3.98890     11.76871        -0.644577      1.066668     -1.317358
      7.20701      4.42988      9.37494         0.204099      0.519164      1.756058
     12.07247      2.71264      1.49195         0.025727      0.039718      0.003429
     -5.18180      9.03929     13.20978        -0.174781     -0.037687     -0.088341
      5.25645      9.05445      1.46456        -0.057978      0.003168     -0.030106
      1.52927      2.63608     13.09434         0.045927     -0.003435     -0.068000
      3.04553      0.02944      1.55885         0.022527     -0.060080      0.048808
     10.52430      0.04244     13.11628         0.004830     -0.011023     -0.012349
     -3.63815     11.80246     13.24819         0.005157      0.014447     -0.072913
      3.69542     11.83685      1.45206        -0.087289     -0.065803      0.019638
      1.49095      2.77679      1.43858        -0.032046      0.060544      0.030497
     12.08801      2.70514     13.11767        -0.080741      0.018398     -0.063874
      8.34495      9.12307      1.57271         0.033875     -0.000824      0.005266
      5.24105      6.56304      6.45030         0.008703      0.046034      0.075168
      5.26291      1.30832      6.41871        -0.074613     -0.040726      0.024354
      8.38248      6.66405      3.34677         0.065047      0.027736     -0.044443
      9.97744      3.89016      6.38601         0.041317     -0.038590      0.076075
      3.71020      3.96479      3.16719        -0.032101      0.039928     -0.051145
      9.91331      3.95542      3.33069         0.017742      0.012112     -0.042615
      3.63648      3.87742      6.33562        -0.032808     -0.046015      0.070922
      5.26482      1.32725      3.18457         0.161697     -0.059413     -0.011535
      8.35589      6.56408      6.47626        -0.020289      0.048375      0.080848
      5.22935      6.69445      3.33010        -0.078619      0.034926     -0.039462
      8.28809      1.20724      6.51935         0.057566     -0.041160      0.034037
     -1.51166     10.70411     11.32552         0.024344      0.043099     -0.000734
      1.54733      5.19144      8.13669        -0.012627     -0.036477     -0.028164
     -1.50204      5.19681     11.33818        -0.039011     -0.007556      0.048263
      1.55646     10.54003      8.23232        -0.058607      0.023816     -0.012985
      3.11722      7.79200     11.36463         0.170581      0.029158      0.129163
     -3.23962      7.81773      8.32537         0.002823      0.063892     -0.040573
      3.06157      7.89902      8.15438         0.052489      0.031599      0.018486
     -3.03554      7.86133     11.37997        -0.014536     -0.034835      0.078647
     -1.65139      5.11785      8.26088        -0.012020     -0.023636     -0.008114
      1.55566     10.45129     11.43677         0.017379      0.015296      0.027445
      1.68996      5.07458     11.23585         0.044081      0.016966      0.049891
      5.33223      9.11399     13.15104         0.038172     -0.074358     -0.097170
      8.32276      1.14067      3.40279        -0.041559     -0.065717     -0.045622
     -1.61057     10.66839      8.21183         0.017111     -0.003950     -0.021847
      7.52625      0.33646      0.52226        -0.007846     -0.017688     -0.008677
     -0.23035      7.97026      7.07675         0.004016      0.007164     -0.033438
      6.54197      6.93727     11.43707        -0.057067      0.191912      0.045035
      7.34392      4.86259     10.73955         0.487108     -1.759085     -0.453687
 -----------------------------------------------------------------------------------
    total drift:                               -0.001084      0.001971      0.009851


--------------------------------------------------------------------------------------------------------



  FREE ENERGIE OF THE ION-ELECTRON SYSTEM (eV)
  ---------------------------------------------------
  free  energy   TOTEN  =     -1198.87669800 eV

  energy  without entropy=    -1198.87669800  energy(sigma->0) =    -1198.87669800
 


--------------------------------------------------------------------------------------------------------


    POTLOK:  cpu time    2.4003: real time    2.4060


--------------------------------------------------------------------------------------------------------


 stress matrix after NEB project (eV)
      0.00000      0.00000      0.00000
      0.00000      0.00000      0.00000
      0.00000      0.00000      0.00000
  FORCES: max atom, RMS     1.880821    0.430352
  FORCE total and by dimension    4.594903    1.759085
  Stress total and by dimension    0.000000    0.000000
     LOOP+:  cpu time50026.8391: real time50154.1633
    4ORBIT:  cpu time    0.0000: real time    0.0000
 


 total charge     
 
# of ion       s       p       d       tot
------------------------------------------
    1        1.578   3.720   0.000   5.298
    2        1.576   3.730   0.000   5.306
    3        1.581   3.725   0.000   5.306
    4        1.578   3.718   0.000   5.296
    5        1.577   3.728   0.000   5.305
    6        1.579   3.694   0.000   5.272
    7        1.579   3.733   0.000   5.312
    8        1.580   3.694   0.000   5.274
    9        1.581   3.698   0.000   5.280
   10        1.576   3.723   0.000   5.299
   11        1.579   3.726   0.000   5.305
   12        1.581   3.713   0.000   5.294
   13        1.574   3.743   0.000   5.317
   14        1.578   3.685   0.000   5.263
   15        1.575   3.744   0.000   5.320
   16        1.579   3.663   0.000   5.242
   17        1.579   3.711   0.000   5.290
   18        1.579   3.690   0.000   5.269
   19        1.578   3.732   0.000   5.310
   20        1.581   3.724   0.000   5.306
   21        1.582   3.724   0.000   5.307
   22        1.579   3.725   0.000   5.304
   23        1.582   3.726   0.000   5.308
   24        1.580   3.725   0.000   5.305
   25        1.579   3.726   0.000   5.306
   26        1.584   3.685   0.000   5.269
   27        1.578   3.674   0.000   5.251
   28        1.580   3.727   0.000   5.307
   29        1.580   3.736   0.000   5.317
   30        1.581   3.725   0.000   5.306
   31        1.580   3.735   0.000   5.315
   32        1.584   3.691   0.000   5.274
   33        1.581   3.725   0.000   5.306
   34        1.580   3.727   0.000   5.307
   35        1.581   3.730   0.000   5.310
   36        1.581   3.721   0.000   5.302
   37        1.579   3.734   0.000   5.313
   38        1.580   3.667   0.000   5.247
   39        1.575   3.760   0.000   5.335
   40        1.575   3.745   0.000   5.320
   41        1.576   3.751   0.000   5.328
   42        1.579   3.730   0.000   5.309
   43        1.578   3.744   0.000   5.322
   44        1.578   3.664   0.000   5.242
   45        1.582   3.725   0.000   5.307
   46        1.578   3.732   0.000   5.310
   47        1.575   3.746   0.000   5.321
   48        1.577   3.740   0.000   5.318
   49        1.579   3.720   0.000   5.300
   50        1.575   3.745   0.000   5.319
   51        1.580   3.734   0.000   5.315
   52        1.582   3.715   0.000   5.297
   53        1.580   3.723   0.000   5.303
   54        1.580   3.702   0.000   5.282
   55        1.578   3.734   0.000   5.312
   56        1.578   3.728   0.000   5.306
   57        1.583   3.683   0.000   5.267
   58        1.578   3.719   0.000   5.297
   59        1.580   3.713   0.000   5.294
   60        1.579   3.730   0.000   5.309
   61        1.582   3.684   0.000   5.266
   62        1.573   3.750   0.000   5.323
   63        1.578   3.727   0.000   5.305
   64        1.581   3.712   0.000   5.293
   65        1.576   3.733   0.000   5.308
   66        1.582   3.680   0.000   5.262
   67        1.578   3.716   0.000   5.294
   68        1.581   3.724   0.000   5.305
   69        1.574   3.744   0.000   5.318
   70        1.575   3.747   0.000   5.322
   71        1.581   3.707   0.000   5.288
   72        1.579   3.683   0.000   5.263
   73        1.643   3.483   0.000   5.126
   74        1.646   3.477   0.000   5.123
   75        0.637   0.995   0.000   1.632
   76        0.642   0.997   0.000   1.640
   77        0.645   1.007   0.000   1.652
   78        0.635   0.987   0.000   1.622
   79        0.639   0.998   0.000   1.637
   80        0.643   0.995   0.000   1.638
   81        0.637   0.993   0.000   1.629
   82        0.643   1.000   0.000   1.643
   83        0.636   0.989   0.000   1.626
   84        0.638   0.995   0.000   1.633
   85        0.639   1.000   0.000   1.639
   86        0.640   1.005   0.000   1.645
   87        0.643   0.996   0.000   1.639
   88        0.637   0.991   0.000   1.628
   89        0.638   0.994   0.000   1.633
   90        0.638   0.993   0.000   1.631
   91        0.641   0.998   0.000   1.639
   92        0.639   0.997   0.000   1.637
   93        0.644   1.001   0.000   1.645
   94        0.639   0.999   0.000   1.638
   95        0.638   0.994   0.000   1.632
   96        0.642   0.993   0.000   1.635
   97        0.641   0.993   0.000   1.634
   98        0.636   0.985   0.000   1.621
   99        0.640   1.003   0.000   1.643
  100        0.643   0.996   0.000   1.639
  101        0.641   0.994   0.000   1.635
  102        0.644   0.999   0.000   1.643
  103        0.640   0.995   0.000   1.634
  104        0.640   0.999   0.000   1.639
  105        0.640   0.996   0.000   1.636
  106        0.637   0.991   0.000   1.629
  107        0.636   0.991   0.000   1.627
  108        0.351   0.468   0.000   0.818
  109        0.350   0.469   0.000   0.819
  110        0.349   0.468   0.000   0.816
  111        0.089   0.060   9.258   9.407
  112        0.100   0.075   9.258   9.433
  113        0.195   0.143   9.129   9.467
  114        1.335   2.240   0.000   3.575
--------------------------------------------------
tot        140.854 311.535  27.645 480.034
 


 magnetization (x)
 
# of ion       s       p       d       tot
------------------------------------------
    1        0.000   0.000   0.000   0.000
    2       -0.000  -0.000   0.000  -0.000
    3        0.000   0.000   0.000   0.000
    4       -0.000  -0.000   0.000  -0.000
    5        0.000   0.000   0.000   0.000
    6       -0.000  -0.000   0.000  -0.000
    7        0.000   0.000   0.000   0.000
    8        0.000   0.000   0.000   0.000
    9        0.000   0.000   0.000   0.000
   10        0.000   0.000   0.000   0.000
   11        0.000   0.000   0.000   0.000
   12        0.000   0.000   0.000   0.000
   13       -0.000  -0.000   0.000  -0.000
   14        0.000  -0.000   0.000  -0.000
   15        0.000  -0.000   0.000  -0.000
   16        0.000  -0.000   0.000   0.000
   17        0.000  -0.000   0.000  -0.000
   18        0.000  -0.000   0.000  -0.000
   19        0.000   0.000   0.000   0.000
   20        0.000  -0.000   0.000  -0.000
   21        0.000   0.000   0.000   0.000
   22       -0.000  -0.000   0.000  -0.000
   23        0.000   0.000   0.000   0.000
   24       -0.000  -0.000   0.000  -0.000
   25       -0.000  -0.000   0.000  -0.000
   26        0.000   0.000   0.000   0.000
   27       -0.000  -0.000   0.000  -0.000
   28        0.000   0.000   0.000   0.000
   29       -0.000  -0.000   0.000  -0.000
   30        0.000   0.000   0.000   0.000
   31        0.000   0.000   0.000   0.000
   32       -0.000   0.000   0.000   0.000
   33        0.000   0.000   0.000   0.000
   34        0.000   0.000   0.000   0.000
   35        0.000   0.000   0.000   0.000
   36       -0.000  -0.000   0.000  -0.000
   37        0.000   0.000   0.000   0.000
   38        0.000  -0.000   0.000  -0.000
   39        0.000   0.000   0.000   0.000
   40       -0.000  -0.000   0.000  -0.000
   41        0.000   0.000   0.000   0.000
   42       -0.000  -0.000   0.000  -0.000
   43        0.000   0.000   0.000   0.000
   44        0.000   0.000   0.000   0.000
   45       -0.000   0.000   0.000   0.000
   46       -0.000   0.000   0.000   0.000
   47       -0.000   0.000   0.000   0.000
   48        0.000   0.000   0.000   0.000
   49       -0.000  -0.000   0.000  -0.000
   50        0.000  -0.000   0.000   0.000
   51       -0.000  -0.000   0.000  -0.000
   52        0.000  -0.000   0.000   0.000
   53        0.000  -0.000   0.000  -0.000
   54       -0.000  -0.000   0.000  -0.000
   55       -0.000   0.000   0.000   0.000
   56        0.000   0.000   0.000   0.000
   57       -0.000   0.000   0.000   0.000
   58        0.000   0.000   0.000   0.000
   59        0.000   0.000   0.000   0.000
   60        0.000   0.000   0.000   0.000
   61        0.000   0.000   0.000   0.000
   62        0.000   0.000   0.000   0.000
   63        0.000   0.000   0.000   0.000
   64        0.000   0.000   0.000   0.000
   65        0.000   0.000   0.000   0.000
   66       -0.000  -0.000   0.000  -0.000
   67        0.000  -0.000   0.000  -0.000
   68       -0.000  -0.000   0.000  -0.000
   69       -0.000  -0.000   0.000  -0.000
   70        0.000  -0.000   0.000  -0.000
   71       -0.000  -0.000   0.000  -0.000
   72        0.000   0.000   0.000   0.000
   73       -0.000  -0.000   0.000  -0.000
   74       -0.000  -0.000   0.000  -0.000
   75       -0.000  -0.000   0.000  -0.000
   76        0.000   0.000   0.000   0.000
   77       -0.000  -0.000   0.000  -0.000
   78        0.000   0.000   0.000   0.000
   79       -0.000  -0.000   0.000  -0.000
   80        0.000   0.000   0.000   0.000
   81        0.000   0.000   0.000   0.000
   82       -0.000  -0.000   0.000  -0.000
   83       -0.000  -0.000   0.000  -0.000
   84        0.000   0.000   0.000   0.000
   85       -0.000  -0.000   0.000  -0.000
   86       -0.000  -0.000   0.000  -0.000
   87       -0.000  -0.000   0.000  -0.000
   88       -0.000  -0.000   0.000  -0.000
   89       -0.000  -0.000   0.000  -0.000
   90       -0.000  -0.000   0.000  -0.000
   91       -0.000  -0.000   0.000  -0.000
   92       -0.000  -0.000   0.000  -0.000
   93       -0.000  -0.000   0.000  -0.000
   94       -0.000  -0.000   0.000  -0.000
   95       -0.000  -0.000   0.000  -0.000
   96       -0.000  -0.000   0.000  -0.000
   97        0.000   0.000   0.000   0.000
   98        0.000   0.000   0.000   0.000
   99        0.000   0.000   0.000   0.000
  100        0.000   0.000   0.000   0.000
  101        0.000   0.000   0.000   0.000
  102        0.000   0.000   0.000   0.000
  103        0.000   0.000   0.000   0.000
  104        0.000   0.000   0.000   0.000
  105        0.000   0.000   0.000   0.000
  106        0.000   0.000   0.000   0.000
  107        0.000   0.000   0.000   0.000
  108        0.000   0.000   0.000   0.000
  109       -0.000  -0.000   0.000  -0.000
  110        0.000   0.000   0.000   0.000
  111       -0.000  -0.000   0.000   0.000
  112       -0.000  -0.000   0.000   0.000
  113        0.000   0.000  -0.000  -0.000
  114       -0.000   0.000   0.000   0.000
--------------------------------------------------
tot          0.000   0.000   0.000   0.000
 

 total amount of memory used by VASP MPI-rank0   230706. kBytes
=======================================================================

   base      :      30000. kBytes
   nonlr-proj:      31875. kBytes
   fftplans  :      69849. kBytes
   grid      :      59474. kBytes
   one-center:        902. kBytes
   HF        :        259. kBytes
   wavefun   :      38347. kBytes
 
  
  
 General timing and accounting informations for this job:
 ========================================================
  
                  Total CPU time used (sec):    50050.559
                            User time (sec):    45610.915
                          System time (sec):     4439.645
                         Elapsed time (sec):    50178.849
  
                   Maximum memory used (kb):      455028.
                   Average memory used (kb):           0.
  
                          Minor page faults:      2851069
                          Major page faults:            0
                 Voluntary context switches:         1095
