>>>  VASP 5.4.4 with BEEF-vdw and vtst
--------------------------------------------------------
>>>  Job information
     SLURM_JOBID=8844100
     SLURM_JOB_NODELIST=cpn-u25-38
     SLURM_NNODES=1
     SLURMTMPDIR=/scratch/8844100
     working directory = /projects/academic/ericwalk/ruthbell/Ads_Ag-SSZ13/DMS_gas/PBE
--------------------------------------------------------
>>>  Module information
--------------------------------------------------------
>>>  Running Configuration
NPROCS=16
--------------------------------------------------------
>>>  Job started at Wed Jul  6 01:28:50 EDT 2022
--------------------------------------------------------
 running on   16 total cores
 distrk:  each k-point on   16 cores,    1 groups
 distr:  one band on    4 cores,    4 groups
 using from now: INCAR     
 vasp.5.4.4.18Apr17-6-g9f103f2a35 (build Dec 31 2018 11:41:54) complex          
  
 POSCAR found type information on POSCAR  S  C  H 
 POSCAR found :  3 types and       9 ions
 scaLAPACK will be used
 LDA part: xc-table for Pade appr. of Perdew
 POSCAR found type information on POSCAR  S  C  H 
 POSCAR found :  3 types and       9 ions
 POSCAR, INCAR and KPOINTS ok, starting setup
 FFT: planning ...
 WAVECAR not read
 entering main loop
       N       E                     dE             d eps       ncg     rms          rms(c)
DAV:   1     0.841585527839E+02    0.84159E+02   -0.44644E+03   112   0.418E+02
DAV:   2    -0.108808073727E+02   -0.95039E+02   -0.93830E+02   136   0.969E+01
DAV:   3    -0.352593003770E+02   -0.24378E+02   -0.23959E+02    96   0.438E+01
DAV:   4    -0.371543356691E+02   -0.18950E+01   -0.18882E+01   128   0.156E+01
DAV:   5    -0.371748538779E+02   -0.20518E-01   -0.20502E-01   108   0.187E+00    0.189E+01
DAV:   6    -0.152374866941E+02    0.21937E+02   -0.64588E+01    96   0.365E+01    0.812E+00
DAV:   7    -0.315929393363E+02   -0.16355E+02   -0.15412E+01    92   0.168E+01    0.467E+00
DAV:   8    -0.354090243499E+02   -0.38161E+01   -0.18965E+00   112   0.594E+00    0.261E+00
DAV:   9    -0.416109992483E+02   -0.62020E+01   -0.35665E+00   116   0.677E+00    0.983E-01
DAV:  10    -0.424495457192E+02   -0.83855E+00   -0.19374E-01    96   0.198E+00    0.664E-01
DAV:  11    -0.433158339723E+02   -0.86629E+00   -0.25852E-01    88   0.184E+00    0.332E-01
DAV:  12    -0.436157050593E+02   -0.29987E+00   -0.46722E-02    96   0.821E-01    0.187E-01
DAV:  13    -0.439359627953E+02   -0.32026E+00   -0.42392E-02    96   0.694E-01    0.991E-02
DAV:  14    -0.439998806426E+02   -0.63918E-01   -0.65322E-03    92   0.288E-01    0.531E-02
DAV:  15    -0.440088124068E+02   -0.89318E-02   -0.16531E-03   112   0.165E-01    0.352E-02
DAV:  16    -0.440141654459E+02   -0.53530E-02   -0.13531E-03   108   0.143E-01    0.252E-02
DAV:  17    -0.440137390634E+02    0.42638E-03   -0.82009E-04    92   0.100E-01    0.181E-02
DAV:  18    -0.440242762731E+02   -0.10537E-01   -0.55173E-04    84   0.837E-02    0.110E-02
DAV:  19    -0.440293234486E+02   -0.50472E-02   -0.15513E-04    92   0.472E-02    0.571E-03
DAV:  20    -0.440305437282E+02   -0.12203E-02   -0.40910E-05   104   0.245E-02    0.303E-03
DAV:  21    -0.440306042614E+02   -0.60533E-04   -0.86237E-06    88   0.127E-02    0.219E-03
DAV:  22    -0.440306090939E+02   -0.48325E-05   -0.49862E-06    80   0.951E-03
   1 F= -.44030609E+02 E0= -.44030609E+02  d E =-.440306E+02  mag=     0.0013
 BRION: g(F)=  0.670E-01 g(S)=  0.000E+00
 bond charge predicted
       N       E                     dE             d eps       ncg     rms          rms(c)
DAV:   1    -0.440502554981E+02   -0.19651E-01   -0.34914E+00    96   0.106E+01    0.461E-01
DAV:   2    -0.440575166126E+02   -0.72611E-02   -0.12034E-01   112   0.171E+00    0.278E-01
DAV:   3    -0.440566690231E+02    0.84759E-03   -0.43470E-03   104   0.350E-01    0.137E-01
DAV:   4    -0.440566875668E+02   -0.18544E-04   -0.80195E-04   112   0.159E-01    0.429E-02
DAV:   5    -0.440567359820E+02   -0.48415E-04   -0.10119E-04    96   0.556E-02    0.113E-02
DAV:   6    -0.440567600484E+02   -0.24066E-04   -0.11784E-05    80   0.204E-02    0.605E-03
DAV:   7    -0.440567877834E+02   -0.27735E-04   -0.62119E-06    80   0.144E-02    0.240E-03
DAV:   8    -0.440568058038E+02   -0.18020E-04   -0.17217E-06    88   0.794E-03    0.155E-03
DAV:   9    -0.440568231217E+02   -0.17318E-04   -0.96458E-07    96   0.452E-03    0.960E-04
DAV:  10    -0.440568435595E+02   -0.20438E-04   -0.15018E-06    92   0.412E-03    0.592E-04
DAV:  11    -0.440568542703E+02   -0.10711E-04   -0.62839E-07    96   0.277E-03    0.412E-04
DAV:  12    -0.440568608567E+02   -0.65864E-05   -0.35671E-07    96   0.201E-03
   2 F= -.44056861E+02 E0= -.44056861E+02  d E =-.262518E-01  mag=    -0.0000
 BRION: g(F)=  0.835E-01 g(S)=  0.000E+00 retain N=  1 mean eig= 0.45
 eig:   0.450
 bond charge predicted
       N       E                     dE             d eps       ncg     rms          rms(c)
DAV:   1    -0.440678425148E+02   -0.10988E-01   -0.12708E+00    80   0.663E+00    0.271E-01
DAV:   2    -0.440699529873E+02   -0.21105E-02   -0.36025E-02   112   0.107E+00    0.224E-01
DAV:   3    -0.440692092260E+02    0.74376E-03   -0.22592E-03   112   0.285E-01    0.900E-02
DAV:   4    -0.440692215676E+02   -0.12342E-04   -0.73209E-04    96   0.139E-01    0.195E-02
DAV:   5    -0.440692256589E+02   -0.40913E-05   -0.59727E-05   112   0.389E-02
   3 F= -.44069226E+02 E0= -.44069226E+02  d E =-.123648E-01  mag=    -0.0000
 BRION: g(F)=  0.356E-01 g(S)=  0.000E+00 retain N=  2 mean eig= 2.17
 eig:   0.284  4.050
 bond charge predicted
       N       E                     dE             d eps       ncg     rms          rms(c)
DAV:   1    -0.440781724130E+02   -0.89508E-02   -0.62695E-01    88   0.448E+00    0.187E-01
DAV:   2    -0.440795944868E+02   -0.14221E-02   -0.21049E-02    96   0.712E-01    0.132E-01
DAV:   3    -0.440794405683E+02    0.15392E-03   -0.90901E-04   112   0.155E-01    0.765E-02
DAV:   4    -0.440794009504E+02    0.39618E-04   -0.28893E-04    88   0.927E-02    0.144E-02
DAV:   5    -0.440794101268E+02   -0.91764E-05   -0.53181E-05   112   0.375E-02
   4 F= -.44079410E+02 E0= -.44079410E+02  d E =-.101845E-01  mag=    -0.0000
 BRION: g(F)=  0.766E-02 g(S)=  0.000E+00 retain N=  2 mean eig= 1.86
 eig:   0.249  3.470
 bond charge predicted
       N       E                     dE             d eps       ncg     rms          rms(c)
DAV:   1    -0.440821820439E+02   -0.27811E-02   -0.21610E-01    80   0.269E+00    0.120E-01
DAV:   2    -0.440827074953E+02   -0.52545E-03   -0.81010E-03    96   0.435E-01    0.753E-02
DAV:   3    -0.440826411335E+02    0.66362E-04   -0.32629E-04   112   0.967E-02    0.392E-02
DAV:   4    -0.440826432702E+02   -0.21367E-05   -0.93812E-05    80   0.482E-02
   5 F= -.44082643E+02 E0= -.44082643E+02  d E =-.323314E-02  mag=    -0.0000
 BRION: g(F)=  0.515E-02 g(S)=  0.000E+00 retain N=  2 mean eig= 0.24
 eig:   0.236  0.236
 bond charge predicted
       N       E                     dE             d eps       ncg     rms          rms(c)
DAV:   1    -0.440846151150E+02   -0.19740E-02   -0.11195E-01    88   0.176E+00    0.929E-02
DAV:   2    -0.440849910041E+02   -0.37589E-03   -0.53571E-03    96   0.353E-01    0.576E-02
DAV:   3    -0.440849554016E+02    0.35603E-04   -0.17192E-04    96   0.704E-02    0.318E-02
DAV:   4    -0.440849603163E+02   -0.49147E-05   -0.70204E-05    88   0.408E-02
   6 F= -.44084960E+02 E0= -.44084960E+02  d E =-.231705E-02  mag=    -0.0000
 BRION: g(F)=  0.340E-02 g(S)=  0.000E+00 retain N=  3 mean eig= 2.15
 eig:   5.956  0.001  0.507
 bond charge predicted
       N       E                     dE             d eps       ncg     rms          rms(c)
DAV:   1    -0.440872472867E+02   -0.22919E-02   -0.34678E-01    80   0.305E+00    0.151E-01
DAV:   2    -0.440884268554E+02   -0.11796E-02   -0.15142E-02   104   0.543E-01    0.866E-02
DAV:   3    -0.440883631362E+02    0.63719E-04   -0.24635E-04   112   0.824E-02    0.519E-02
DAV:   4    -0.440883565769E+02    0.65593E-05   -0.18328E-04    80   0.576E-02    0.936E-03
DAV:   5    -0.440883606157E+02   -0.40388E-05   -0.26093E-05    96   0.244E-02
   7 F= -.44088361E+02 E0= -.44088361E+02  d E =-.340030E-02  mag=    -0.0000
 BRION: g(F)=  0.310E-02 g(S)=  0.000E+00 retain N=  4 mean eig= 1.92
 eig:   5.135  1.378  0.584  0.584
 bond charge predicted
       N       E                     dE             d eps       ncg     rms          rms(c)
DAV:   1    -0.440894288572E+02   -0.10723E-02   -0.43113E-02    80   0.112E+00    0.560E-02
DAV:   2    -0.440895585220E+02   -0.12966E-03   -0.18071E-03   104   0.202E-01    0.357E-02
DAV:   3    -0.440895490111E+02    0.95109E-05   -0.43662E-05    96   0.379E-02
   8 F= -.44089549E+02 E0= -.44089549E+02  d E =-.118840E-02  mag=    -0.0000
 BRION: g(F)=  0.122E-02 g(S)=  0.000E+00 retain N=  4 mean eig= 1.48
 eig:   2.510  2.510  0.447  0.447
 bond charge predicted
       N       E                     dE             d eps       ncg     rms          rms(c)
DAV:   1    -0.440908433308E+02   -0.12848E-02   -0.45675E-02    80   0.113E+00    0.628E-02
DAV:   2    -0.440909566135E+02   -0.11328E-03   -0.15648E-03   112   0.176E-01    0.345E-02
DAV:   3    -0.440909541233E+02    0.24902E-05   -0.26239E-05    96   0.278E-02
   9 F= -.44090954E+02 E0= -.44090954E+02  d E =-.140511E-02  mag=    -0.0000
 BRION: g(F)=  0.116E-02 g(S)=  0.000E+00 retain N=  5 mean eig= 2.51
 eig:   5.146  5.146  0.519  0.519  1.229
 bond charge predicted
       N       E                     dE             d eps       ncg     rms          rms(c)
DAV:   1    -0.440939669719E+02   -0.30104E-02   -0.37664E-01    80   0.330E+00    0.177E-01
DAV:   2    -0.440948811924E+02   -0.91422E-03   -0.12392E-02   104   0.503E-01    0.989E-02
DAV:   3    -0.440948318089E+02    0.49383E-04   -0.21801E-04   104   0.812E-02    0.533E-02
DAV:   4    -0.440948436867E+02   -0.11878E-04   -0.12332E-04    80   0.493E-02    0.886E-03
DAV:   5    -0.440948471248E+02   -0.34380E-05   -0.18779E-05    96   0.214E-02
  10 F= -.44094847E+02 E0= -.44094847E+02  d E =-.389300E-02  mag=    -0.0000
 BRION: g(F)=  0.105E-02 g(S)=  0.000E+00 retain N=  6 mean eig= 3.21
 eig:   6.495  6.495  3.499  1.751  0.511  0.511
 bond charge predicted
       N       E                     dE             d eps       ncg     rms          rms(c)
DAV:   1    -0.440974465322E+02   -0.26028E-02   -0.30771E-01    80   0.300E+00    0.157E-01
DAV:   2    -0.440982004037E+02   -0.75387E-03   -0.10069E-02    96   0.457E-01    0.895E-02
DAV:   3    -0.440981548531E+02    0.45551E-04   -0.17932E-04    96   0.755E-02    0.485E-02
DAV:   4    -0.440981670540E+02   -0.12201E-04   -0.12365E-04    80   0.493E-02    0.883E-03
DAV:   5    -0.440981711989E+02   -0.41448E-05   -0.20780E-05    96   0.232E-02
  11 F= -.44098171E+02 E0= -.44098171E+02  d E =-.332407E-02  mag=    -0.0000
 BRION: g(F)=  0.110E-02 g(S)=  0.000E+00 retain N=  6 mean eig= 1.73
 eig:   2.022  2.022  2.372  2.372  0.464  1.151
 bond charge predicted
       N       E                     dE             d eps       ncg     rms          rms(c)
DAV:   1    -0.441006806491E+02   -0.25136E-02   -0.30285E-01    80   0.298E+00    0.157E-01
DAV:   2    -0.441014200116E+02   -0.73936E-03   -0.99165E-03    96   0.453E-01    0.895E-02
DAV:   3    -0.441013748697E+02    0.45142E-04   -0.17938E-04   112   0.746E-02    0.483E-02
DAV:   4    -0.441013868802E+02   -0.12010E-04   -0.10927E-04    80   0.474E-02    0.826E-03
DAV:   5    -0.441013910756E+02   -0.41954E-05   -0.17948E-05    96   0.222E-02
  12 F= -.44101391E+02 E0= -.44101391E+02  d E =-.321988E-02  mag=    -0.0000
 BRION: g(F)=  0.978E-03 g(S)=  0.000E+00 retain N=  3 mean eig= 5.46
 eig:   7.500  7.500  1.388
 bond charge predicted
       N       E                     dE             d eps       ncg     rms          rms(c)
DAV:   1    -0.441033518003E+02   -0.19649E-02   -0.19651E-01    80   0.234E+00    0.127E-01
DAV:   2    -0.441038629067E+02   -0.51111E-03   -0.68634E-03    96   0.369E-01    0.716E-02
DAV:   3    -0.441038330110E+02    0.29896E-04   -0.12271E-04   112   0.605E-02    0.395E-02
DAV:   4    -0.441038416505E+02   -0.86395E-05   -0.76118E-05    80   0.385E-02
  13 F= -.44103842E+02 E0= -.44103842E+02  d E =-.245057E-02  mag=    -0.0000
 BRION: g(F)=  0.926E-03 g(S)=  0.000E+00 retain N=  3 mean eig= 3.41
 eig:   4.681  4.681  0.883
 bond charge predicted
       N       E                     dE             d eps       ncg     rms          rms(c)
DAV:   1    -0.441067846183E+02   -0.29516E-02   -0.10475E+00    80   0.549E+00    0.292E-01
DAV:   2    -0.441094375706E+02   -0.26530E-02   -0.35205E-02    96   0.845E-01    0.165E-01
DAV:   3    -0.441092789709E+02    0.15860E-03   -0.60606E-04   112   0.137E-01    0.903E-02
DAV:   4    -0.441092912369E+02   -0.12266E-04   -0.38768E-04    80   0.883E-02    0.153E-02
DAV:   5    -0.441092966910E+02   -0.54541E-05   -0.63701E-05    96   0.408E-02
  14 F= -.44109297E+02 E0= -.44109297E+02  d E =-.545504E-02  mag=     0.0000
 BRION: g(F)=  0.916E-03 g(S)=  0.000E+00 retain N=  3 mean eig= 3.09
 eig:   4.125  4.125  1.017
 bond charge predicted
       N       E                     dE             d eps       ncg     rms          rms(c)
DAV:   1    -0.441102072627E+02   -0.91603E-03   -0.42692E-02    96   0.111E+00    0.575E-02
DAV:   2    -0.441103223447E+02   -0.11508E-03   -0.15143E-03   112   0.180E-01    0.329E-02
DAV:   3    -0.441103182305E+02    0.41142E-05   -0.34067E-05    96   0.336E-02
  15 F= -.44110318E+02 E0= -.44110318E+02  d E =-.102154E-02  mag=     0.0000
 BRION: g(F)=  0.939E-03 g(S)=  0.000E+00 retain N=  3 mean eig= 2.51
 eig:   3.452  3.452  0.629
 bond charge predicted
       N       E                     dE             d eps       ncg     rms          rms(c)
DAV:   1    -0.441124021918E+02   -0.20798E-02   -0.30596E-01    80   0.295E+00    0.162E-01
DAV:   2    -0.441131686973E+02   -0.76651E-03   -0.10471E-02    96   0.457E-01    0.910E-02
DAV:   3    -0.441131218259E+02    0.46871E-04   -0.18323E-04   112   0.743E-02    0.497E-02
DAV:   4    -0.441131327820E+02   -0.10956E-04   -0.11410E-04    96   0.476E-02    0.840E-03
DAV:   5    -0.441131373351E+02   -0.45531E-05   -0.19168E-05    96   0.259E-02
  16 F= -.44113137E+02 E0= -.44113137E+02  d E =-.281910E-02  mag=    -0.0000
 BRION: g(F)=  0.905E-03 g(S)=  0.000E+00 retain N=  4 mean eig= 4.31
 eig:   7.682  7.682  0.940  0.940
 bond charge predicted
       N       E                     dE             d eps       ncg     rms          rms(c)
DAV:   1    -0.441140390878E+02   -0.90631E-03   -0.26234E+00    80   0.865E+00    0.460E-01
DAV:   2    -0.441208848571E+02   -0.68458E-02   -0.89963E-02   104   0.135E+00    0.261E-01
DAV:   3    -0.441204658421E+02    0.41902E-03   -0.15676E-03   112   0.221E-01    0.144E-01
DAV:   4    -0.441204620472E+02    0.37949E-05   -0.10106E-03    96   0.143E-01    0.244E-02
DAV:   5    -0.441204683058E+02   -0.62586E-05   -0.16772E-04    96   0.658E-02    0.116E-02
DAV:   6    -0.441204804023E+02   -0.12096E-04   -0.23026E-05    96   0.254E-02    0.444E-03
DAV:   7    -0.441204967345E+02   -0.16332E-04   -0.69531E-06    80   0.211E-02    0.210E-03
DAV:   8    -0.441205099267E+02   -0.13192E-04   -0.41842E-06    96   0.158E-02    0.147E-03
DAV:   9    -0.441205206858E+02   -0.10759E-04   -0.96837E-07    96   0.612E-03    0.113E-03
DAV:  10    -0.441205443015E+02   -0.23616E-04   -0.32227E-06    88   0.546E-03    0.812E-04
DAV:  11    -0.441205473863E+02   -0.30847E-05   -0.23089E-07    96   0.237E-03
  17 F= -.44120547E+02 E0= -.44120547E+02  d E =-.741005E-02  mag=    -0.0000
 BRION: g(F)=  0.888E-03 g(S)=  0.000E+00 retain N=  3 mean eig= 2.42
 eig:   0.567  3.346  3.346
 bond charge predicted
       N       E                     dE             d eps       ncg     rms          rms(c)
DAV:   1    -0.441139572951E+02    0.65870E-02   -0.97531E-01    80   0.529E+00    0.281E-01
DAV:   2    -0.441164475315E+02   -0.24902E-02   -0.33140E-02   112   0.822E-01    0.160E-01
DAV:   3    -0.441162936279E+02    0.15390E-03   -0.59655E-04    88   0.136E-01    0.877E-02
DAV:   4    -0.441163075161E+02   -0.13888E-04   -0.40911E-04    96   0.895E-02    0.158E-02
DAV:   5    -0.441163081733E+02   -0.65721E-06   -0.72075E-05   112   0.407E-02
  18 F= -.44116308E+02 E0= -.44116308E+02  d E =0.423921E-02  mag=    -0.0000
 BRION: g(F)=  0.918E-03 g(S)=  0.000E+00 retain N=  4 mean eig= 3.57
 eig:   6.168  6.168  0.562  1.381
 bond charge predicted
       N       E                     dE             d eps       ncg     rms          rms(c)
DAV:   1    -0.441184765731E+02   -0.21691E-02   -0.10316E+00    80   0.543E+00    0.287E-01
DAV:   2    -0.441210936306E+02   -0.26171E-02   -0.34737E-02   112   0.841E-01    0.163E-01
DAV:   3    -0.441209531857E+02    0.14044E-03   -0.61041E-04   104   0.138E-01    0.896E-02
DAV:   4    -0.441209792340E+02   -0.26048E-04   -0.39658E-04   104   0.887E-02    0.155E-02
DAV:   5    -0.441209747404E+02    0.44936E-05   -0.64144E-05    96   0.388E-02
  19 F= -.44120975E+02 E0= -.44120975E+02  d E =-.466657E-02  mag=    -0.0000
 BRION: g(F)=  0.737E-03 g(S)=  0.000E+00 retain N=  5 mean eig= 4.36
 eig:   7.175  7.175  5.527  0.649  1.280
 bond charge predicted
       N       E                     dE             d eps       ncg     rms          rms(c)
DAV:   1    -0.441176166942E+02    0.33625E-02   -0.47744E+00    80   0.117E+01    0.625E-01
DAV:   2    -0.441302329029E+02   -0.12616E-01   -0.16607E-01   112   0.182E+00    0.353E-01
DAV:   3    -0.441294660017E+02    0.76690E-03   -0.29194E-03   112   0.300E-01    0.196E-01
DAV:   4    -0.441294251066E+02    0.40895E-04   -0.19014E-03    96   0.194E-01    0.333E-02
DAV:   5    -0.441294271109E+02   -0.20043E-05   -0.30807E-04    96   0.858E-02    0.159E-02
DAV:   6    -0.441294429807E+02   -0.15870E-04   -0.41248E-05   112   0.260E-02    0.577E-03
DAV:   7    -0.441294636262E+02   -0.20645E-04   -0.38049E-06    80   0.953E-03    0.219E-03
DAV:   8    -0.441294852165E+02   -0.21590E-04   -0.23580E-06    96   0.714E-03    0.193E-03
DAV:   9    -0.441295067197E+02   -0.21503E-04   -0.24034E-06    96   0.927E-03    0.107E-03
DAV:  10    -0.441295239216E+02   -0.17202E-04   -0.23880E-06    88   0.737E-03    0.104E-03
DAV:  11    -0.441295290187E+02   -0.50971E-05   -0.30448E-07    96   0.260E-03
  20 F= -.44129529E+02 E0= -.44129529E+02  d E =-.855428E-02  mag=    -0.0000
 BRION: g(F)=  0.116E-02 g(S)=  0.000E+00 retain N=  2 mean eig= 3.05
 eig:   3.051  3.051
 bond charge predicted
       N       E                     dE             d eps       ncg     rms          rms(c)
DAV:   1    -0.441136798866E+02    0.15844E-01   -0.35987E+00    80   0.101E+01    0.542E-01
DAV:   2    -0.441229178913E+02   -0.92380E-02   -0.12210E-01   112   0.157E+00    0.307E-01
DAV:   3    -0.441223314082E+02    0.58648E-03   -0.22068E-03    88   0.258E-01    0.169E-01
DAV:   4    -0.441223156173E+02    0.15791E-04   -0.15576E-03    96   0.170E-01    0.309E-02
DAV:   5    -0.441223163531E+02   -0.73587E-06   -0.26817E-04   112   0.766E-02    0.135E-02
DAV:   6    -0.441223259899E+02   -0.96367E-05   -0.21479E-05    96   0.196E-02
  21 F= -.44122326E+02 E0= -.44122326E+02  d E =0.720303E-02  mag=    -0.0000
 BRION: g(F)=  0.730E-03 g(S)=  0.000E+00 retain N=  1 mean eig= 1.83
 eig:   1.831
 bond charge predicted
       N       E                     dE             d eps       ncg     rms          rms(c)
DAV:   1    -0.441241737271E+02   -0.18574E-02   -0.48669E-01    80   0.373E+00    0.198E-01
DAV:   2    -0.441253989602E+02   -0.12252E-02   -0.16212E-02   104   0.573E-01    0.112E-01
DAV:   3    -0.441253495180E+02    0.49442E-04   -0.28593E-04   104   0.935E-02    0.616E-02
DAV:   4    -0.441253825393E+02   -0.33021E-04   -0.18715E-04   104   0.597E-02    0.107E-02
DAV:   5    -0.441253830824E+02   -0.54314E-06   -0.30106E-05    96   0.262E-02
  22 F= -.44125383E+02 E0= -.44125383E+02  d E =-.305709E-02  mag=     0.0000
 BRION: g(F)=  0.805E-03 g(S)=  0.000E+00 retain N=  2 mean eig= 1.11
 eig:   1.944  0.275
 bond charge predicted
       N       E                     dE             d eps       ncg     rms          rms(c)
DAV:   1    -0.441256347719E+02   -0.25223E-03   -0.46410E-03   112   0.391E-01    0.181E-02
DAV:   2    -0.441256429254E+02   -0.81534E-05   -0.12170E-04   112   0.567E-02    0.123E-02
DAV:   3    -0.441256427533E+02    0.17208E-06   -0.38862E-06    96   0.129E-02
  23 F= -.44125643E+02 E0= -.44125643E+02  d E =-.259671E-03  mag=    -0.0000
 BRION: g(F)=  0.561E-03 g(S)=  0.000E+00 retain N=  1 mean eig= 0.33
 eig:   0.329
 bond charge predicted
       N       E                     dE             d eps       ncg     rms          rms(c)
DAV:   1    -0.441261464978E+02   -0.50357E-03   -0.13437E-02    96   0.629E-01    0.338E-02
DAV:   2    -0.441261745044E+02   -0.28007E-04   -0.41961E-04    96   0.947E-02    0.185E-02
DAV:   3    -0.441261742220E+02    0.28240E-06   -0.10389E-05    96   0.179E-02
  24 F= -.44126174E+02 E0= -.44126174E+02  d E =-.531469E-03  mag=    -0.0000
 BRION: g(F)=  0.545E-03 g(S)=  0.000E+00 retain N=  2 mean eig= 0.43
 eig:   0.435  0.435
 bond charge predicted
       N       E                     dE             d eps       ncg     rms          rms(c)
DAV:   1    -0.441266136842E+02   -0.43918E-03   -0.99578E-03    96   0.538E-01    0.300E-02
DAV:   2    -0.441266334426E+02   -0.19758E-04   -0.31624E-04    96   0.807E-02    0.159E-02
DAV:   3    -0.441266337260E+02   -0.28344E-06   -0.81944E-06    80   0.159E-02
  25 F= -.44126634E+02 E0= -.44126634E+02  d E =-.459504E-03  mag=    -0.0000
 BRION: g(F)=  0.537E-03 g(S)=  0.000E+00 retain N=  3 mean eig= 1.85
 eig:   4.969  0.209  0.377
 bond charge predicted
       N       E                     dE             d eps       ncg     rms          rms(c)
DAV:   1    -0.441285613817E+02   -0.19279E-02   -0.46101E-01    80   0.362E+00    0.196E-01
DAV:   2    -0.441296759363E+02   -0.11146E-02   -0.14889E-02   104   0.543E-01    0.109E-01
DAV:   3    -0.441296175705E+02    0.58366E-04   -0.27484E-04   104   0.879E-02    0.590E-02
DAV:   4    -0.441296269858E+02   -0.94153E-05   -0.15760E-04    96   0.516E-02    0.994E-03
DAV:   5    -0.441296284645E+02   -0.14787E-05   -0.24875E-05   112   0.229E-02
  26 F= -.44129628E+02 E0= -.44129628E+02  d E =-.299474E-02  mag=     0.0000
 BRION: g(F)=  0.502E-03 g(S)=  0.000E+00 retain N=  4 mean eig= 2.71
 eig:   4.279  4.279  0.405  1.870
 bond charge predicted
       N       E                     dE             d eps       ncg     rms          rms(c)
DAV:   1    -0.441314261976E+02   -0.17992E-02   -0.62722E-01    80   0.419E+00    0.229E-01
DAV:   2    -0.441329903000E+02   -0.15641E-02   -0.20774E-02    96   0.635E-01    0.127E-01
DAV:   3    -0.441329056431E+02    0.84657E-04   -0.38338E-04   112   0.103E-01    0.696E-02
DAV:   4    -0.441329127624E+02   -0.71192E-05   -0.22205E-04    80   0.601E-02    0.117E-02
DAV:   5    -0.441329170346E+02   -0.42723E-05   -0.32146E-05    96   0.262E-02
  27 F= -.44132917E+02 E0= -.44132917E+02  d E =-.328857E-02  mag=    -0.0000
 BRION: g(F)=  0.501E-03 g(S)=  0.000E+00 retain N=  3 mean eig= 4.03
 eig:   0.746  5.676  5.676
 bond charge predicted
       N       E                     dE             d eps       ncg     rms          rms(c)
DAV:   1    -0.441344721243E+02   -0.15594E-02   -0.76595E-01    80   0.463E+00    0.251E-01
DAV:   2    -0.441364114535E+02   -0.19393E-02   -0.25587E-02    96   0.705E-01    0.139E-01
DAV:   3    -0.441363063157E+02    0.10514E-03   -0.47073E-04   112   0.115E-01    0.768E-02
DAV:   4    -0.441363149684E+02   -0.86526E-05   -0.27645E-04    80   0.683E-02    0.129E-02
DAV:   5    -0.441363219903E+02   -0.70220E-05   -0.41848E-05    96   0.311E-02
  28 F= -.44136322E+02 E0= -.44136322E+02  d E =-.340496E-02  mag=    -0.0000
 BRION: g(F)=  0.509E-03 g(S)=  0.000E+00 retain N=  2 mean eig= 3.21
 eig:   3.213  3.213
 bond charge predicted
       N       E                     dE             d eps       ncg     rms          rms(c)
DAV:   1    -0.441342002051E+02    0.21148E-02   -0.19441E-01    80   0.235E+00    0.127E-01
DAV:   2    -0.441346722300E+02   -0.47202E-03   -0.63333E-03    96   0.354E-01    0.717E-02
DAV:   3    -0.441346605335E+02    0.11696E-04   -0.12627E-04   112   0.595E-02    0.390E-02
DAV:   4    -0.441346852358E+02   -0.24702E-04   -0.72661E-05   104   0.357E-02    0.694E-03
DAV:   5    -0.441346872453E+02   -0.20095E-05   -0.11425E-05    88   0.198E-02
  29 F= -.44134687E+02 E0= -.44134687E+02  d E =0.163475E-02  mag=     0.0000
 BRION: g(F)=  0.508E-03 g(S)=  0.000E+00 retain N=  3 mean eig= 3.26
 eig:   4.809  4.809  0.162
 bond charge predicted
       N       E                     dE             d eps       ncg     rms          rms(c)
DAV:   1    -0.441294357211E+02    0.52495E-02   -0.55461E+00    80   0.125E+01    0.677E-01
DAV:   2    -0.441437191692E+02   -0.14283E-01   -0.18685E-01   104   0.191E+00    0.376E-01
DAV:   3    -0.441429499084E+02    0.76926E-03   -0.34283E-03    88   0.312E-01    0.207E-01
DAV:   4    -0.441428883964E+02    0.61512E-04   -0.20783E-03    80   0.186E-01    0.354E-02
DAV:   5    -0.441428890770E+02   -0.68058E-06   -0.30980E-04    96   0.798E-02    0.175E-02
DAV:   6    -0.441429023607E+02   -0.13284E-04   -0.39380E-05   112   0.275E-02    0.668E-03
DAV:   7    -0.441429250418E+02   -0.22681E-04   -0.85063E-06    80   0.204E-02    0.230E-03
DAV:   8    -0.441429442313E+02   -0.19190E-04   -0.59842E-06    96   0.189E-02    0.298E-03
DAV:   9    -0.441429548558E+02   -0.10624E-04   -0.16705E-06    96   0.963E-03    0.219E-03
DAV:  10    -0.441429858638E+02   -0.31008E-04   -0.68577E-06    88   0.815E-03    0.214E-03
DAV:  11    -0.441429900400E+02   -0.41762E-05   -0.53939E-07    96   0.341E-03
  30 F= -.44142990E+02 E0= -.44142990E+02  d E =-.830279E-02  mag=    -0.0000
 BRION: g(F)=  0.700E-03 g(S)=  0.000E+00 retain N=  3 mean eig= 2.95
 eig:   6.647  2.195  0.001
 bond charge predicted
       N       E                     dE             d eps       ncg     rms          rms(c)
DAV:   1    -0.441314518406E+02    0.11534E-01   -0.25541E+00    80   0.846E+00    0.460E-01
DAV:   2    -0.441379087420E+02   -0.64569E-02   -0.84738E-02   112   0.129E+00    0.255E-01
DAV:   3    -0.441375474208E+02    0.36132E-03   -0.15829E-03    88   0.211E-01    0.141E-01
DAV:   4    -0.441375453469E+02    0.20739E-05   -0.10232E-03    96   0.127E-01    0.255E-02
DAV:   5    -0.441375460419E+02   -0.69499E-06   -0.16359E-04    96   0.553E-02    0.116E-02
DAV:   6    -0.441375531861E+02   -0.71442E-05   -0.16622E-05    96   0.165E-02
  31 F= -.44137553E+02 E0= -.44137553E+02  d E =0.543685E-02  mag=    -0.0000
 BRION: g(F)=  0.496E-03 g(S)=  0.000E+00 retain N=  1 mean eig= 1.16
 eig:   1.157
 bond charge predicted
       N       E                     dE             d eps       ncg     rms          rms(c)
DAV:   1    -0.441388870799E+02   -0.13410E-02   -0.49674E-01    80   0.374E+00    0.202E-01
DAV:   2    -0.441401300456E+02   -0.12430E-02   -0.16550E-02   112   0.571E-01    0.112E-01
DAV:   3    -0.441400888482E+02    0.41197E-04   -0.30015E-04   104   0.932E-02    0.617E-02
DAV:   4    -0.441401192705E+02   -0.30422E-04   -0.17854E-04   104   0.554E-02    0.104E-02
DAV:   5    -0.441401193085E+02   -0.38013E-07   -0.26767E-05    96   0.237E-02
  32 F= -.44140119E+02 E0= -.44140119E+02  d E =-.256612E-02  mag=    -0.0000
 BRION: g(F)=  0.503E-03 g(S)=  0.000E+00 retain N=  2 mean eig= 0.80
 eig:   1.207  0.386
 bond charge predicted
       N       E                     dE             d eps       ncg     rms          rms(c)
DAV:   1    -0.441403597711E+02   -0.24050E-03   -0.57565E-03    96   0.419E-01    0.229E-02
DAV:   2    -0.441403746181E+02   -0.14847E-04   -0.22809E-04   112   0.704E-02    0.138E-02
DAV:   3    -0.441403736230E+02    0.99516E-06   -0.50511E-06    96   0.132E-02
  33 F= -.44140374E+02 E0= -.44140374E+02  d E =-.254315E-03  mag=    -0.0000
 BRION: g(F)=  0.331E-03 g(S)=  0.000E+00 retain N=  2 mean eig= 3.90
 eig:   0.350  7.446
 bond charge predicted
       N       E                     dE             d eps       ncg     rms          rms(c)
DAV:   1    -0.441414849132E+02   -0.11103E-02   -0.73804E-01    80   0.455E+00    0.249E-01
DAV:   2    -0.441432965982E+02   -0.18117E-02   -0.24335E-02   112   0.689E-01    0.137E-01
DAV:   3    -0.441432019029E+02    0.94695E-04   -0.46025E-04   104   0.112E-01    0.757E-02
DAV:   4    -0.441432116482E+02   -0.97452E-05   -0.26514E-04    96   0.660E-02    0.128E-02
DAV:   5    -0.441432132032E+02   -0.15550E-05   -0.39882E-05   112   0.281E-02
  34 F= -.44143213E+02 E0= -.44143213E+02  d E =-.283958E-02  mag=     0.0000
 BRION: g(F)=  0.339E-03 g(S)=  0.000E+00 retain N=  3 mean eig= 3.61
 eig:   3.246  3.246  4.328
 bond charge predicted
       N       E                     dE             d eps       ncg     rms          rms(c)
DAV:   1    -0.441441224345E+02   -0.91079E-03   -0.62973E-01    80   0.421E+00    0.229E-01
DAV:   2    -0.441456910069E+02   -0.15686E-02   -0.20915E-02    96   0.637E-01    0.126E-01
DAV:   3    -0.441456080871E+02    0.82920E-04   -0.38854E-04   112   0.104E-01    0.698E-02
DAV:   4    -0.441456174587E+02   -0.93715E-05   -0.22600E-04    80   0.614E-02    0.117E-02
DAV:   5    -0.441456226658E+02   -0.52072E-05   -0.32957E-05    96   0.267E-02
  35 F= -.44145623E+02 E0= -.44145623E+02  d E =-.240946E-02  mag=    -0.0000
 BRION: g(F)=  0.263E-03 g(S)=  0.000E+00 retain N=  3 mean eig= 4.44
 eig:   0.379  6.476  6.476
 bond charge predicted
       N       E                     dE             d eps       ncg     rms          rms(c)
DAV:   1    -0.441454833842E+02    0.13407E-03   -0.14020E+00    80   0.630E+00    0.341E-01
DAV:   2    -0.441489755295E+02   -0.34921E-02   -0.46072E-02    96   0.951E-01    0.189E-01
DAV:   3    -0.441487856731E+02    0.18986E-03   -0.84361E-04   112   0.154E-01    0.104E-01
DAV:   4    -0.441487940821E+02   -0.84090E-05   -0.49606E-04    80   0.913E-02    0.174E-02
DAV:   5    -0.441488020863E+02   -0.80042E-05   -0.73187E-05    96   0.398E-02
  36 F= -.44148802E+02 E0= -.44148802E+02  d E =-.317942E-02  mag=     0.0000
 BRION: g(F)=  0.232E-03 g(S)=  0.000E+00 retain N=  2 mean eig= 4.12
 eig:   4.121  4.121
 bond charge predicted
       N       E                     dE             d eps       ncg     rms          rms(c)
DAV:   1    -0.441470023493E+02    0.17917E-02   -0.24053E-01    80   0.260E+00    0.142E-01
DAV:   2    -0.441475972896E+02   -0.59494E-03   -0.79730E-03    96   0.396E-01    0.793E-02
DAV:   3    -0.441475831185E+02    0.14171E-04   -0.15999E-04   112   0.667E-02    0.435E-02
DAV:   4    -0.441476138114E+02   -0.30693E-04   -0.88763E-05   104   0.394E-02    0.758E-03
DAV:   5    -0.441476167382E+02   -0.29268E-05   -0.13756E-05    96   0.208E-02
  37 F= -.44147617E+02 E0= -.44147617E+02  d E =0.118535E-02  mag=     0.0000
 BRION: g(F)=  0.255E-03 g(S)=  0.000E+00 retain N=  1 mean eig= 0.77
 eig:   0.771
 bond charge predicted
       N       E                     dE             d eps       ncg     rms          rms(c)
DAV:   1    -0.441482516646E+02   -0.63785E-03   -0.11115E-01    80   0.178E+00    0.962E-02
DAV:   2    -0.441485123244E+02   -0.26066E-03   -0.35975E-03   104   0.268E-01    0.538E-02
DAV:   3    -0.441485003433E+02    0.11981E-04   -0.70335E-05   104   0.451E-02    0.295E-02
DAV:   4    -0.441485085128E+02   -0.81694E-05   -0.40983E-05   112   0.274E-02
  38 F= -.44148509E+02 E0= -.44148509E+02  d E =-.891775E-03  mag=     0.0000
 BRION: g(F)=  0.178E-03 g(S)=  0.000E+00 retain N=  2 mean eig= 0.67
 eig:   0.209  1.133
 bond charge predicted
       N       E                     dE             d eps       ncg     rms          rms(c)
DAV:   1    -0.441486712643E+02   -0.17092E-03   -0.49874E-03    88   0.391E-01    0.209E-02
DAV:   2    -0.441486815736E+02   -0.10309E-04   -0.15613E-04    96   0.603E-02    0.114E-02
DAV:   3    -0.441486823286E+02   -0.75503E-06   -0.46725E-06    80   0.154E-02
  39 F= -.44148682E+02 E0= -.44148682E+02  d E =-.173816E-03  mag=     0.0000
 BRION: g(F)=  0.193E-03 g(S)=  0.000E+00 retain N=  2 mean eig= 0.58
 eig:   0.579  0.579
 bond charge predicted
       N       E                     dE             d eps       ncg     rms          rms(c)
DAV:   1    -0.441490869489E+02   -0.40538E-03   -0.34503E-02    80   0.100E+00    0.545E-02
DAV:   2    -0.441491590801E+02   -0.72131E-04   -0.10563E-03    88   0.147E-01    0.298E-02
DAV:   3    -0.441491586275E+02    0.45263E-06   -0.28742E-05   108   0.308E-02
  40 F= -.44149159E+02 E0= -.44149159E+02  d E =-.476299E-03  mag=     0.0000
 BRION: g(F)=  0.170E-03 g(S)=  0.000E+00 retain N=  3 mean eig= 2.83
 eig:   3.812  3.812  0.856
 bond charge predicted
       N       E                     dE             d eps       ncg     rms          rms(c)
DAV:   1    -0.441488176903E+02    0.34139E-03   -0.13050E+00    80   0.614E+00    0.332E-01
DAV:   2    -0.441518919298E+02   -0.30742E-02   -0.41342E-02   104   0.908E-01    0.184E-01
DAV:   3    -0.441517301099E+02    0.16182E-03   -0.77897E-04   104   0.150E-01    0.997E-02
DAV:   4    -0.441517459187E+02   -0.15809E-04   -0.43538E-04    80   0.883E-02    0.163E-02
DAV:   5    -0.441517488238E+02   -0.29051E-05   -0.69309E-05    96   0.453E-02
  41 F= -.44151749E+02 E0= -.44151749E+02  d E =-.259020E-02  mag=     0.0000
 BRION: g(F)=  0.195E-03 g(S)=  0.000E+00 retain N=  3 mean eig= 2.98
 eig:   0.590  4.169  4.169
 bond charge predicted
       N       E                     dE             d eps       ncg     rms          rms(c)
DAV:   1    -0.441521398976E+02   -0.39398E-03   -0.24565E-01    80   0.267E+00    0.144E-01
DAV:   2    -0.441527345594E+02   -0.59466E-03   -0.80202E-03    96   0.403E-01    0.798E-02
DAV:   3    -0.441527022517E+02    0.32308E-04   -0.15162E-04    96   0.690E-02    0.437E-02
DAV:   4    -0.441527155202E+02   -0.13268E-04   -0.99534E-05    80   0.456E-02    0.778E-03
DAV:   5    -0.441527217150E+02   -0.61949E-05   -0.22409E-05   112   0.327E-02
  42 F= -.44152722E+02 E0= -.44152722E+02  d E =-.972891E-03  mag=    -0.0000
 BRION: g(F)=  0.251E-03 g(S)=  0.000E+00 retain N=  3 mean eig= 3.90
 eig:   5.336  5.336  1.033
 bond charge predicted
       N       E                     dE             d eps       ncg     rms          rms(c)
DAV:   1    -0.441518647218E+02    0.85080E-03   -0.10771E-01    80   0.178E+00    0.946E-02
DAV:   2    -0.441521178129E+02   -0.25309E-03   -0.34519E-03    96   0.267E-01    0.536E-02
DAV:   3    -0.441521134455E+02    0.43674E-05   -0.70672E-05   112   0.460E-02
  43 F= -.44152113E+02 E0= -.44152113E+02  d E =0.608270E-03  mag=     0.0000
 BRION: g(F)=  0.170E-03 g(S)=  0.000E+00 retain N=  3 mean eig= 2.91
 eig:   3.936  3.936  0.861
 bond charge predicted
       N       E                     dE             d eps       ncg     rms          rms(c)
DAV:   1    -0.441524856319E+02   -0.36782E-03   -0.26992E-01    88   0.278E+00    0.148E-01
DAV:   2    -0.441531441236E+02   -0.65849E-03   -0.87438E-03   104   0.417E-01    0.840E-02
DAV:   3    -0.441531081321E+02    0.35991E-04   -0.17676E-04   104   0.704E-02    0.464E-02
DAV:   4    -0.441531189071E+02   -0.10775E-04   -0.10889E-04   104   0.433E-02    0.828E-03
DAV:   5    -0.441531190086E+02   -0.10156E-06   -0.16740E-05   112   0.216E-02
  44 F= -.44153119E+02 E0= -.44153119E+02  d E =-.100556E-02  mag=    -0.0000
 BRION: g(F)=  0.175E-03 g(S)=  0.000E+00 retain N=  4 mean eig= 4.05
 eig:   7.341  7.341  0.679  0.837
 bond charge predicted
       N       E                     dE             d eps       ncg     rms          rms(c)
DAV:   1    -0.441176991682E+02    0.35420E-01   -0.16005E+01    80   0.215E+01    0.115E+00
DAV:   2    -0.441583345553E+02   -0.40635E-01   -0.53358E-01   104   0.325E+00    0.643E-01
DAV:   3    -0.441561842704E+02    0.21503E-02   -0.10179E-02    88   0.544E-01    0.352E-01
DAV:   4    -0.441560376080E+02    0.14666E-03   -0.58495E-03    80   0.321E-01    0.596E-02
DAV:   5    -0.441560293569E+02    0.82511E-05   -0.87470E-04    96   0.138E-01    0.282E-02
DAV:   6    -0.441560654887E+02   -0.36132E-04   -0.12003E-04   112   0.465E-02    0.101E-02
DAV:   7    -0.441561067756E+02   -0.41287E-04   -0.12028E-05    80   0.221E-02    0.428E-03
DAV:   8    -0.441561630392E+02   -0.56264E-04   -0.12807E-05    96   0.229E-02    0.437E-03
DAV:   9    -0.441561828497E+02   -0.19811E-04   -0.46094E-06    96   0.169E-02    0.347E-03
DAV:  10    -0.441562445434E+02   -0.61694E-04   -0.14350E-05    88   0.129E-02    0.291E-03
DAV:  11    -0.441562539783E+02   -0.94349E-05   -0.12389E-06    96   0.522E-03
  45 F= -.44156254E+02 E0= -.44156254E+02  d E =-.313497E-02  mag=     0.0000
 BRION: g(F)=  0.352E-02 g(S)=  0.000E+00 retain N=  4 mean eig= 1.66
 eig:   2.677  2.677  0.408  0.878
 bond charge predicted
       N       E                     dE             d eps       ncg     rms          rms(c)
DAV:   1    -0.441159656549E+02    0.40279E-01   -0.15846E+01    80   0.214E+01    0.115E+00
DAV:   2    -0.441554265205E+02   -0.39461E-01   -0.51429E-01   112   0.320E+00    0.643E-01
DAV:   3    -0.441530903621E+02    0.23362E-02   -0.10151E-02    88   0.536E-01    0.351E-01
DAV:   4    -0.441529484458E+02    0.14192E-03   -0.59943E-03    96   0.312E-01    0.619E-02
DAV:   5    -0.441529396262E+02    0.88196E-05   -0.88965E-04    96   0.131E-01    0.289E-02
DAV:   6    -0.441529714011E+02   -0.31775E-04   -0.10674E-04    96   0.417E-02    0.108E-02
DAV:   7    -0.441530223686E+02   -0.50968E-04   -0.17955E-05    96   0.178E-02    0.360E-03
DAV:   8    -0.441530582130E+02   -0.35844E-04   -0.35481E-06    96   0.933E-03    0.388E-03
DAV:   9    -0.441531011170E+02   -0.42904E-04   -0.66254E-06    72   0.127E-02    0.156E-03
DAV:  10    -0.441531316907E+02   -0.30574E-04   -0.59285E-06    88   0.119E-02    0.226E-03
DAV:  11    -0.441531491975E+02   -0.17507E-04   -0.15349E-06    88   0.542E-03    0.108E-03
DAV:  12    -0.441531596781E+02   -0.10481E-04   -0.76910E-07    96   0.311E-03    0.428E-04
DAV:  13    -0.441531660716E+02   -0.63934E-05   -0.34617E-07    96   0.228E-03
  46 F= -.44153166E+02 E0= -.44153166E+02  d E =0.308791E-02  mag=    -0.0000
 BRION: g(F)=  0.112E-03 g(S)=  0.000E+00 retain N=  1 mean eig= 2.50
 eig:   2.502
 bond charge predicted
       N       E                     dE             d eps       ncg     rms          rms(c)
DAV:   1    -0.441535053787E+02   -0.34570E-03   -0.15614E-01    96   0.212E+00    0.115E-01
DAV:   2    -0.441538646650E+02   -0.35929E-03   -0.49786E-03   112   0.314E-01    0.635E-02
DAV:   3    -0.441538494788E+02    0.15186E-04   -0.97852E-05   112   0.518E-02    0.347E-02
DAV:   4    -0.441538598634E+02   -0.10385E-04   -0.53537E-05    96   0.301E-02    0.571E-03
DAV:   5    -0.441538602579E+02   -0.39452E-06   -0.79088E-06    96   0.126E-02
  47 F= -.44153860E+02 E0= -.44153860E+02  d E =-.694186E-03  mag=    -0.0000
 BRION: g(F)=  0.121E-03 g(S)=  0.000E+00 retain N=  2 mean eig= 2.39
 eig:   2.386  2.386
 bond charge predicted
       N       E                     dE             d eps       ncg     rms          rms(c)
DAV:   1    -0.441540550749E+02   -0.19521E-03   -0.21934E-02    96   0.800E-01    0.431E-02
DAV:   2    -0.441541055853E+02   -0.50510E-04   -0.72326E-04   104   0.121E-01    0.238E-02
DAV:   3    -0.441541035435E+02    0.20418E-05   -0.14205E-05    96   0.204E-02
  48 F= -.44154104E+02 E0= -.44154104E+02  d E =-.243286E-03  mag=     0.0000
 BRION: g(F)=  0.945E-04 g(S)=  0.000E+00 retain N=  1 mean eig= 0.23
 eig:   0.234
 bond charge predicted
       N       E                     dE             d eps       ncg     rms          rms(c)
DAV:   1    -0.441541042905E+02    0.12948E-05   -0.11863E-03    96   0.203E-01    0.975E-03
DAV:   2    -0.441541041841E+02    0.10642E-06   -0.27144E-05   112   0.299E-02
  49 F= -.44154104E+02 E0= -.44154104E+02  d E =-.640582E-06  mag=    -0.0000
 BRION: g(F)=  0.114E-03 g(S)=  0.000E+00 retain N=  2 mean eig= 0.20
 eig:   0.203  0.203
 bond charge predicted
       N       E                     dE             d eps       ncg     rms          rms(c)
DAV:   1    -0.441541587764E+02   -0.54486E-04   -0.13996E-03   112   0.212E-01    0.993E-03
DAV:   2    -0.441541617613E+02   -0.29849E-05   -0.41409E-05   112   0.330E-02
  50 F= -.44154162E+02 E0= -.44154162E+02  d E =-.575772E-04  mag=    -0.0000
 BRION: g(F)=  0.698E-04 g(S)=  0.000E+00 retain N=  3 mean eig= 1.96
 eig:   5.112  0.209  0.558
 bond charge predicted
       N       E                     dE             d eps       ncg     rms          rms(c)
DAV:   1    -0.441542186214E+02   -0.59845E-04   -0.14416E-03    96   0.209E-01    0.128E-02
DAV:   2    -0.441542214897E+02   -0.28683E-05   -0.44005E-05   108   0.319E-02
  51 F= -.44154221E+02 E0= -.44154221E+02  d E =-.597284E-04  mag=     0.0000
 BRION: g(F)=  0.677E-04 g(S)=  0.000E+00 retain N=  2 mean eig= 0.29
 eig:   0.379  0.191
 bond charge predicted
       N       E                     dE             d eps       ncg     rms          rms(c)
DAV:   1    -0.441542744823E+02   -0.55861E-04   -0.11348E-03    92   0.186E-01    0.128E-02
DAV:   2    -0.441542765955E+02   -0.21132E-05   -0.35561E-05   108   0.280E-02
  52 F= -.44154277E+02 E0= -.44154277E+02  d E =-.551058E-04  mag=    -0.0000
 BRION: g(F)=  0.661E-04 g(S)=  0.000E+00 retain N=  3 mean eig= 0.30
 eig:   0.412  0.250  0.250
 bond charge predicted
       N       E                     dE             d eps       ncg     rms          rms(c)
DAV:   1    -0.441543242036E+02   -0.49721E-04   -0.91948E-04    84   0.167E-01    0.117E-02
DAV:   2    -0.441543256503E+02   -0.14467E-05   -0.27175E-05   104   0.246E-02
  53 F= -.44154326E+02 E0= -.44154326E+02  d E =-.490548E-04  mag=     0.0000
 BRION: g(F)=  0.656E-04 g(S)=  0.000E+00 retain N=  2 mean eig= 0.33
 eig:   0.135  0.529
 bond charge predicted
       N       E                     dE             d eps       ncg     rms          rms(c)
DAV:   1    -0.441543598862E+02   -0.35683E-04   -0.48769E-04    92   0.123E-01    0.884E-03
DAV:   2    -0.441543606222E+02   -0.73601E-06   -0.13494E-05    92   0.186E-02
  54 F= -.44154361E+02 E0= -.44154361E+02  d E =-.349719E-04  mag=     0.0000
 BRION: g(F)=  0.635E-04 g(S)=  0.000E+00 retain N=  2 mean eig= 0.73
 eig:   0.337  1.123
 bond charge predicted
       N       E                     dE             d eps       ncg     rms          rms(c)
DAV:   1    -0.441544189514E+02   -0.59065E-04   -0.14121E-03    80   0.206E-01    0.127E-02
DAV:   2    -0.441544213015E+02   -0.23500E-05   -0.43076E-05   104   0.302E-02
  55 F= -.44154421E+02 E0= -.44154421E+02  d E =-.606792E-04  mag=    -0.0000
 BRION: g(F)=  0.619E-04 g(S)=  0.000E+00 retain N=  2 mean eig= 0.51
 eig:   0.510  0.510
 bond charge predicted
       N       E                     dE             d eps       ncg     rms          rms(c)
DAV:   1    -0.441545012253E+02   -0.82274E-04   -0.29553E-03    80   0.297E-01    0.187E-02
DAV:   2    -0.441545059941E+02   -0.47688E-05   -0.86131E-05    96   0.432E-02
  56 F= -.44154506E+02 E0= -.44154506E+02  d E =-.846926E-04  mag=    -0.0000
 BRION: g(F)=  0.584E-04 g(S)=  0.000E+00 retain N=  3 mean eig= 2.72
 eig:   3.787  3.787  0.578
 bond charge predicted
       N       E                     dE             d eps       ncg     rms          rms(c)
DAV:   1    -0.441536744207E+02    0.82680E-03   -0.11009E+00    80   0.573E+00    0.310E-01
DAV:   2    -0.441560417024E+02   -0.23673E-02   -0.32042E-02   112   0.812E-01    0.174E-01
DAV:   3    -0.441559185484E+02    0.12315E-03   -0.62777E-04   104   0.134E-01    0.906E-02
DAV:   4    -0.441559436290E+02   -0.25081E-04   -0.32725E-04    88   0.756E-02    0.145E-02
DAV:   5    -0.441559445864E+02   -0.95739E-06   -0.48071E-05    96   0.313E-02
  57 F= -.44155945E+02 E0= -.44155945E+02  d E =-.143859E-02  mag=     0.0000
 BRION: g(F)=  0.680E-04 g(S)=  0.000E+00 retain N=  3 mean eig= 4.21
 eig:   7.783  3.655  1.205
 bond charge predicted
       N       E                     dE             d eps       ncg     rms          rms(c)
DAV:   1    -0.441548316462E+02    0.11120E-02   -0.23673E-01    80   0.266E+00    0.142E-01
DAV:   2    -0.441553289122E+02   -0.49727E-03   -0.68668E-03   112   0.374E-01    0.802E-02
DAV:   3    -0.441553159985E+02    0.12914E-04   -0.13576E-04   104   0.618E-02    0.422E-02
DAV:   4    -0.441553404380E+02   -0.24439E-04   -0.70636E-05   104   0.344E-02    0.691E-03
DAV:   5    -0.441553409792E+02   -0.54117E-06   -0.95979E-06    80   0.140E-02
  58 F= -.44155341E+02 E0= -.44155341E+02  d E =0.603607E-03  mag=    -0.0000
 BRION: g(F)=  0.874E-04 g(S)=  0.000E+00 retain N=  1 mean eig= 2.16
 eig:   2.161
 bond charge predicted
       N       E                     dE             d eps       ncg     rms          rms(c)
DAV:   1    -0.441555517752E+02   -0.21134E-03   -0.10107E-01    80   0.173E+00    0.927E-02
DAV:   2    -0.441557626656E+02   -0.21089E-03   -0.29978E-03   104   0.248E-01    0.519E-02
DAV:   3    -0.441557549500E+02    0.77156E-05   -0.59290E-05   104   0.412E-02
  59 F= -.44155755E+02 E0= -.44155755E+02  d E =-.413971E-03  mag=     0.0000
 BRION: g(F)=  0.701E-04 g(S)=  0.000E+00 retain N=  2 mean eig= 1.74
 eig:   2.289  1.189
 bond charge predicted
       N       E                     dE             d eps       ncg     rms          rms(c)
DAV:   1    -0.441557983244E+02   -0.35659E-04   -0.79856E-04   104   0.168E-01    0.101E-02
DAV:   2    -0.441557979229E+02    0.40154E-06   -0.20064E-05   112   0.230E-02
  60 F= -.44155798E+02 E0= -.44155798E+02  d E =-.429729E-04  mag=    -0.0000
 BRION: g(F)=  0.419E-04 g(S)=  0.000E+00 retain N=  2 mean eig= 2.41
 eig:   0.341  4.488
 bond charge predicted
       N       E                     dE             d eps       ncg     rms          rms(c)
DAV:   1    -0.441559310252E+02   -0.13270E-03   -0.24563E-02    80   0.845E-01    0.468E-02
DAV:   2    -0.441559827329E+02   -0.51708E-04   -0.76400E-04    88   0.125E-01    0.259E-02
DAV:   3    -0.441559827266E+02    0.63088E-08   -0.20313E-05   104   0.235E-02
  61 F= -.44155983E+02 E0= -.44155983E+02  d E =-.184804E-03  mag=     0.0000
 BRION: g(F)=  0.397E-04 g(S)=  0.000E+00 retain N=  3 mean eig= 1.71
 eig:   3.856  0.633  0.633
 bond charge predicted
       N       E                     dE             d eps       ncg     rms          rms(c)
DAV:   1    -0.441561289592E+02   -0.14623E-03   -0.11609E-01    80   0.186E+00    0.100E-01
DAV:   2    -0.441563618003E+02   -0.23284E-03   -0.33752E-03    88   0.264E-01    0.545E-02
DAV:   3    -0.441563589637E+02    0.28366E-05   -0.87365E-05   104   0.496E-02
  62 F= -.44156359E+02 E0= -.44156359E+02  d E =-.376237E-03  mag=     0.0000
 BRION: g(F)=  0.325E-04 g(S)=  0.000E+00 retain N=  3 mean eig= 3.62
 eig:   0.289  5.284  5.284
 bond charge predicted
       N       E                     dE             d eps       ncg     rms          rms(c)
DAV:   1    -0.441564604883E+02   -0.98688E-04   -0.12892E-02    88   0.635E-01    0.359E-02
DAV:   2    -0.441564795972E+02   -0.19109E-04   -0.35787E-04    88   0.885E-02    0.192E-02
DAV:   3    -0.441564805525E+02   -0.95539E-06   -0.94242E-06    80   0.178E-02
  63 F= -.44156481E+02 E0= -.44156481E+02  d E =-.121589E-03  mag=     0.0000
 BRION: g(F)=  0.641E-04 g(S)=  0.000E+00 retain N=  2 mean eig= 2.72
 eig:   4.129  1.311
 bond charge predicted
       N       E                     dE             d eps       ncg     rms          rms(c)
DAV:   1    -0.441564802106E+02   -0.61340E-06   -0.52762E-04    96   0.135E-01    0.545E-03
DAV:   2    -0.441564820086E+02   -0.17981E-05   -0.15266E-05   112   0.214E-02
  64 F= -.44156482E+02 E0= -.44156482E+02  d E =-.145608E-05  mag=     0.0000
 BRION: g(F)=  0.362E-04 g(S)=  0.000E+00 retain N=  2 mean eig= 1.33
 eig:   0.653  2.009
 bond charge predicted
       N       E                     dE             d eps       ncg     rms          rms(c)
DAV:   1    -0.441564444886E+02    0.35722E-04   -0.13933E-03    88   0.206E-01    0.114E-02
DAV:   2    -0.441564480068E+02   -0.35183E-05   -0.42733E-05   112   0.308E-02
  65 F= -.44156448E+02 E0= -.44156448E+02  d E =0.340018E-04  mag=    -0.0000
 BRION: g(F)=  0.289E-04 g(S)=  0.000E+00 retain N=  2 mean eig= 0.32
 eig:   0.322  0.322
 bond charge predicted
       N       E                     dE             d eps       ncg     rms          rms(c)
DAV:   1    -0.441564785361E+02   -0.34048E-04   -0.10369E-03    88   0.174E-01    0.726E-03
DAV:   2    -0.441564823594E+02   -0.38234E-05   -0.35361E-05   104   0.262E-02
  66 F= -.44156482E+02 E0= -.44156482E+02  d E =-.343526E-04  mag=    -0.0000
 BRION: g(F)=  0.267E-04 g(S)=  0.000E+00 retain N=  3 mean eig= 0.88
 eig:   0.335  1.155  1.155
 bond charge predicted
       N       E                     dE             d eps       ncg     rms          rms(c)
DAV:   1    -0.441565467717E+02   -0.68236E-04   -0.66597E-03    80   0.450E-01    0.249E-02
DAV:   2    -0.441565591135E+02   -0.12342E-04   -0.19077E-04    96   0.651E-02    0.142E-02
DAV:   3    -0.441565598706E+02   -0.75708E-06   -0.47084E-06    80   0.127E-02
  67 F= -.44156560E+02 E0= -.44156560E+02  d E =-.775112E-04  mag=     0.0000
 BRION: g(F)=  0.423E-04 g(S)=  0.000E+00 retain N=  2 mean eig= 0.61
 eig:   0.217  0.999
 bond charge predicted
       N       E                     dE             d eps       ncg     rms          rms(c)
DAV:   1    -0.441565312511E+02    0.27862E-04   -0.12671E-03    96   0.201E-01    0.895E-03
DAV:   2    -0.441565343569E+02   -0.31059E-05   -0.40934E-05   104   0.328E-02
  68 F= -.44156534E+02 E0= -.44156534E+02  d E =0.255137E-04  mag=    -0.0000
 BRION: g(F)=  0.380E-04 g(S)=  0.000E+00 retain N=  2 mean eig= 0.26
 eig:   0.280  0.246
 bond charge predicted
       N       E                     dE             d eps       ncg     rms          rms(c)
DAV:   1    -0.441565325998E+02   -0.13487E-05   -0.75889E-05   104   0.523E-02    0.397E-03
DAV:   2    -0.441565331768E+02   -0.57698E-06   -0.19224E-06    96   0.794E-03
  69 F= -.44156533E+02 E0= -.44156533E+02  d E =0.118017E-05  mag=    -0.0000
 BRION: g(F)=  0.262E-04 g(S)=  0.000E+00 retain N=  2 mean eig= 0.33
 eig:   0.299  0.370
 bond charge predicted
       N       E                     dE             d eps       ncg     rms          rms(c)
DAV:   1    -0.441565602093E+02   -0.27609E-04   -0.79547E-04   104   0.153E-01    0.738E-03
DAV:   2    -0.441565611028E+02   -0.89355E-06   -0.15510E-05    96   0.192E-02
  70 F= -.44156561E+02 E0= -.44156561E+02  d E =-.279261E-04  mag=     0.0000
 BRION: g(F)=  0.241E-04 g(S)=  0.000E+00 retain N=  3 mean eig= 0.47
 eig:   0.939  0.184  0.277
 bond charge predicted
       N       E                     dE             d eps       ncg     rms          rms(c)
DAV:   1    -0.441565913739E+02   -0.31165E-04   -0.10960E-03    96   0.184E-01    0.113E-02
DAV:   2    -0.441565928961E+02   -0.15222E-05   -0.31814E-05    96   0.267E-02
  71 F= -.44156593E+02 E0= -.44156593E+02  d E =-.317933E-04  mag=    -0.0000
 BRION: g(F)=  0.265E-04 g(S)=  0.000E+00 retain N=  4 mean eig= 1.69
 eig:   3.231  3.231  0.150  0.134
 bond charge predicted
       N       E                     dE             d eps       ncg     rms          rms(c)
DAV:   1    -0.441566944901E+02   -0.10312E-03   -0.92562E-02    80   0.168E+00    0.912E-02
DAV:   2    -0.441568684914E+02   -0.17400E-03   -0.25280E-03    96   0.233E-01    0.512E-02
DAV:   3    -0.441568668191E+02    0.16724E-05   -0.65573E-05   104   0.444E-02
  72 F= -.44156867E+02 E0= -.44156867E+02  d E =-.273923E-03  mag=     0.0000
 BRION: g(F)=  0.226E-04 g(S)=  0.000E+00 retain N=  2 mean eig= 1.57
 eig:   1.570  1.570
 bond charge predicted
       N       E                     dE             d eps       ncg     rms          rms(c)
DAV:   1    -0.441567267297E+02    0.14176E-03   -0.16136E-02    88   0.697E-01    0.359E-02
DAV:   2    -0.441567618398E+02   -0.35110E-04   -0.48242E-04    80   0.103E-01    0.211E-02
DAV:   3    -0.441567620516E+02   -0.21179E-06   -0.12420E-05    88   0.197E-02
  73 F= -.44156762E+02 E0= -.44156762E+02  d E =0.104768E-03  mag=    -0.0000
 BRION: g(F)=  0.269E-04 g(S)=  0.000E+00 retain N=  2 mean eig= 1.34
 eig:   1.341  1.341
 bond charge predicted
       N       E                     dE             d eps       ncg     rms          rms(c)
DAV:   1    -0.441568077839E+02   -0.45944E-04   -0.25990E-03   104   0.274E-01    0.137E-02
DAV:   2    -0.441568111174E+02   -0.33335E-05   -0.54027E-05    96   0.351E-02
  74 F= -.44156811E+02 E0= -.44156811E+02  d E =-.490659E-04  mag=    -0.0000
 BRION: g(F)=  0.194E-04 g(S)=  0.000E+00 retain N=  2 mean eig= 1.31
 eig:   1.306  1.306
 reached required accuracy - stopping structural energy minimisation
--------------------------------------------------------
>>>  Job finished at Wed Jul  6 01:49:00 EDT 2022
