 vasp.5.4.4.18Apr17-6-g9f103f2a35 (build Dec 31 2018 11:41:54) complex          
  
 executed on             LinuxIFC date 2022.07.06  01:28:53
 running on   16 total cores
 distrk:  each k-point on   16 cores,    1 groups
 distr:  one band on NCORES_PER_BAND=   4 cores,    4 groups


--------------------------------------------------------------------------------------------------------


 INCAR:
 POTCAR:    PAW_PBE S 17Jan2003                   
 POTCAR:   PAW_PBE C 08Apr2002                    
 POTCAR:   PAW_PBE H 15Jun2001                    
 POTCAR:    PAW_PBE S 17Jan2003                   
   VRHFIN =S : s2p4                                                             
   LEXCH  = PE                                                                  
   EATOM  =   276.8230 eV,   20.3459 Ry                                         
                                                                                
   TITEL  = PAW_PBE S 17Jan2003                                                 
   LULTRA =        F    use ultrasoft PP ?                                      
   IUNSCR =        1    unscreen: 0-lin 1-nonlin 2-no                           
   RPACOR =    1.500    partial core radius                                     
   POMASS =   32.066; ZVAL   =    6.000    mass and valenz                      
   RCORE  =    1.900    outmost cutoff radius                                   
   RWIGS  =    2.200; RWIGS  =    1.164    wigner-seitz radius (au A)           
   ENMAX  =  280.000; ENMIN  =  194.016 eV                                      
   ICORE  =        2    local potential                                         
   LCOR   =        T    correct aug charges                                     
   LPAW   =        T    paw PP                                                  
   EAUG   =  335.092                                                            
   DEXC   =     .000                                                            
   RMAX   =    2.867    core radius for proj-oper                               
   RAUG   =    1.300    factor for augmentation sphere                          
   RDEP   =    1.954    radius for radial grids                                 
   QCUT   =   -4.360; QGAM   =    8.721    optimization parameters              
                                                                                
   Description                                                                  
     l     E      TYP  RCUT    TYP  RCUT                                        
     0   .000     23  1.900                                                     
     0   .000     23  1.900                                                     
     1   .000     23  1.900                                                     
     1   .000     23  1.900                                                     
     2   .000     23  1.900                                                     
  local pseudopotential read in
  partial core-charges read in
  atomic valenz-charges read in
  non local Contribution for L=           0  read in
    real space projection operators read in
  non local Contribution for L=           0  read in
    real space projection operators read in
  non local Contribution for L=           1  read in
    real space projection operators read in
  non local Contribution for L=           1  read in
    real space projection operators read in
    PAW grid and wavefunctions read in
 
   number of l-projection  operators is LMAX  =           4
   number of lm-projection operators is LMMAX =           8
 
 POTCAR:   PAW_PBE C 08Apr2002                    
   VRHFIN =C: s2p2                                                              
   LEXCH  = PE                                                                  
   EATOM  =   147.1560 eV,   10.8157 Ry                                         
                                                                                
   TITEL  = PAW_PBE C 08Apr2002                                                 
   LULTRA =        F    use ultrasoft PP ?                                      
   IUNSCR =        0    unscreen: 0-lin 1-nonlin 2-no                           
   RPACOR =     .000    partial core radius                                     
   POMASS =   12.011; ZVAL   =    4.000    mass and valenz                      
   RCORE  =    1.500    outmost cutoff radius                                   
   RWIGS  =    1.630; RWIGS  =     .863    wigner-seitz radius (au A)           
   ENMAX  =  400.000; ENMIN  =  300.000 eV                                      
   ICORE  =        2    local potential                                         
   LCOR   =        T    correct aug charges                                     
   LPAW   =        T    paw PP                                                  
   EAUG   =  644.873                                                            
   DEXC   =     .000                                                            
   RMAX   =    2.266    core radius for proj-oper                               
   RAUG   =    1.300    factor for augmentation sphere                          
   RDEP   =    1.501    radius for radial grids                                 
   RDEPT  =    1.300    core radius for aug-charge                              
   QCUT   =   -5.516; QGAM   =   11.032    optimization parameters              
                                                                                
   Description                                                                  
     l     E      TYP  RCUT    TYP  RCUT                                        
     0   .000     23  1.200                                                     
     0   .000     23  1.200                                                     
     1   .000     23  1.500                                                     
     1  2.500     23  1.500                                                     
     2   .000      7  1.500                                                     
  local pseudopotential read in
  atomic valenz-charges read in
  non local Contribution for L=           0  read in
    real space projection operators read in
  non local Contribution for L=           0  read in
    real space projection operators read in
  non local Contribution for L=           1  read in
    real space projection operators read in
  non local Contribution for L=           1  read in
    real space projection operators read in
    PAW grid and wavefunctions read in
 
   number of l-projection  operators is LMAX  =           4
   number of lm-projection operators is LMMAX =           8
 
 POTCAR:   PAW_PBE H 15Jun2001                    
   VRHFIN =H: ultrasoft test                                                    
   LEXCH  = PE                                                                  
   EATOM  =    12.4884 eV,     .9179 Ry                                         
                                                                                
   TITEL  = PAW_PBE H 15Jun2001                                                 
   LULTRA =        F    use ultrasoft PP ?                                      
   IUNSCR =        0    unscreen: 0-lin 1-nonlin 2-no                           
   RPACOR =     .000    partial core radius                                     
   POMASS =    1.000; ZVAL   =    1.000    mass and valenz                      
   RCORE  =    1.100    outmost cutoff radius                                   
   RWIGS  =     .700; RWIGS  =     .370    wigner-seitz radius (au A)           
   ENMAX  =  250.000; ENMIN  =  200.000 eV                                      
   RCLOC  =     .701    cutoff for local pot                                    
   LCOR   =        T    correct aug charges                                     
   LPAW   =        T    paw PP                                                  
   EAUG   =  400.000                                                            
   RMAX   =    2.174    core radius for proj-oper                               
   RAUG   =    1.200    factor for augmentation sphere                          
   RDEP   =    1.112    radius for radial grids                                 
   QCUT   =   -5.749; QGAM   =   11.498    optimization parameters              
                                                                                
   Description                                                                  
     l     E      TYP  RCUT    TYP  RCUT                                        
     0   .000     23  1.100                                                     
     0   .500     23  1.100                                                     
     1  -.300     23  1.100                                                     
  local pseudopotential read in
  atomic valenz-charges read in
  non local Contribution for L=           0  read in
    real space projection operators read in
  non local Contribution for L=           0  read in
    real space projection operators read in
  non local Contribution for L=           1  read in
    real space projection operators read in
    PAW grid and wavefunctions read in
 
   number of l-projection  operators is LMAX  =           3
   number of lm-projection operators is LMMAX =           5
 
 Optimization of the real space projectors (new method)

 maximal supplied QI-value         = 19.84
 optimisation between [QCUT,QGAM] = [ 10.12, 20.44] = [ 28.68,116.96] Ry 
 Optimized for a Real-space Cutoff    1.42 Angstroem

   l    n(q)    QCUT    max X(q) W(low)/X(q) W(high)/X(q)  e(spline) 
   0      9    10.119     5.487    0.15E-04    0.47E-05    0.66E-08
   0      9    10.119    85.627    0.51E-04    0.92E-04    0.63E-07
   1      8    10.119     3.530    0.37E-05    0.76E-05    0.28E-07
   1      8    10.119    42.714    0.16E-03    0.16E-03    0.23E-06
 Optimization of the real space projectors (new method)

 maximal supplied QI-value         = 25.13
 optimisation between [QCUT,QGAM] = [ 10.05, 20.36] = [ 28.30,116.06] Ry 
 Optimized for a Real-space Cutoff    1.38 Angstroem

   l    n(q)    QCUT    max X(q) W(low)/X(q) W(high)/X(q)  e(spline) 
   0      8    10.053     5.582    0.33E-04    0.15E-04    0.75E-07
   0      8    10.053    69.432    0.23E-03    0.38E-03    0.25E-06
   1      8    10.053     2.780    0.76E-04    0.11E-03    0.15E-06
   1      8    10.053     4.549    0.19E-03    0.19E-03    0.27E-06
 Optimization of the real space projectors (new method)

 maximal supplied QI-value         = 34.20
 optimisation between [QCUT,QGAM] = [  9.92, 20.18] = [ 27.55,114.04] Ry 
 Optimized for a Real-space Cutoff    1.34 Angstroem

   l    n(q)    QCUT    max X(q) W(low)/X(q) W(high)/X(q)  e(spline) 
   0      8     9.919     4.436    0.31E-04    0.59E-04    0.66E-07
   0      8     9.919    16.131    0.16E-03    0.20E-03    0.35E-06
   1      8     9.919     4.654    0.19E-03    0.46E-03    0.40E-06
  PAW_PBE S 17Jan2003                   :
 energy of atom  1       EATOM= -276.8230
 kinetic energy error for atom=    0.0046 (will be added to EATOM!!)
 PAW_PBE C 08Apr2002                    :
 energy of atom  2       EATOM= -147.1560
 kinetic energy error for atom=    0.0288 (will be added to EATOM!!)
 PAW_PBE H 15Jun2001                    :
 energy of atom  3       EATOM=  -12.4884
 kinetic energy error for atom=    0.0098 (will be added to EATOM!!)
 
 
 POSCAR: O  C                                    
  positions in direct lattice
  No initial velocities read in
 exchange correlation table for  LEXCH =        8
   RHO(1)=    0.500       N(1)  =     2000
   RHO(2)=  100.500       N(2)  =     4000

 VTST: version 3.2, (02/03/18)

 CHAIN: initializing optimizer
 
 OPT: Using VASP QUASI-newton optimizer
 CHAIN: Read ICHAIN            0
 
 POSCAR: O  C                                    
  positions in direct lattice
  No initial velocities read in
 


--------------------------------------------------------------------------------------------------------


 ion  position               nearest neighbor table
   1  0.766  0.487  0.651-   2 1.80   3 1.81
   2  0.859  0.432  0.671-   6 1.09   4 1.09   5 1.09   1 1.80
   3  0.626  0.364  0.652-   9 1.09   7 1.09   8 1.10   1 1.81
   4  0.879  0.408  0.606-   2 1.09
   5  0.824  0.361  0.718-   2 1.09
   6  0.935  0.502  0.700-   2 1.09
   7  0.626  0.296  0.692-   3 1.09
   8  0.569  0.388  0.683-   3 1.10
   9  0.601  0.336  0.582-   3 1.09
 
  LATTYP: Found a hexagonal cell.
 ALAT       =    13.6750001907
 C/A-ratio  =     1.0798537472
  
  Lattice vectors:
  
 A1 = (  13.6750001907,   0.0000000000,   0.0000000000)
 A2 = (  -6.8375000954,  11.8428975619,   0.0000000000)
 A3 = (   0.0000000000,   0.0000000000,  14.7670001984)


Analysis of symmetry for initial positions (statically):
=====================================================================
 Subroutine PRICEL returns:
 Original cell was already a primitive cell.
 

 Routine SETGRP: Setting up the symmetry group for a 
 hexagonal supercell.


 Subroutine GETGRP returns: Found  1 space group operations
 (whereof  1 operations were pure point group operations)
 out of a pool of 24 trial point group operations.


The static configuration has the point symmetry C_1 .


Analysis of symmetry for dynamics (positions and initial velocities):
=====================================================================
 Subroutine PRICEL returns:
 Original cell was already a primitive cell.
 

 Routine SETGRP: Setting up the symmetry group for a 
 hexagonal supercell.


 Subroutine GETGRP returns: Found  1 space group operations
 (whereof  1 operations were pure point group operations)
 out of a pool of 24 trial point group operations.


The dynamic configuration has the point symmetry C_1 .


Analysis of structural, dynamic, and magnetic symmetry:
=====================================================================
 Subroutine PRICEL returns:
 Original cell was already a primitive cell.
 

 Routine SETGRP: Setting up the symmetry group for a 
 hexagonal supercell.


 Subroutine GETGRP returns: Found  1 space group operations
 (whereof  1 operations were pure point group operations)
 out of a pool of 24 trial point group operations.


The magnetic configuration has the point symmetry C_1 .


 Subroutine INISYM returns: Found  1 space group operations
 (whereof  1 operations are pure point group operations),
 and found     1 'primitive' translations

 
 
 KPOINTS: Gamma points only                       
  k-points in reciprocal lattice
Space group operators:
 irot       det(A)        alpha          n_x          n_y          n_z        tau_x        tau_y        tau_z
    1     1.000000     0.000000     1.000000     0.000000     0.000000     0.000000     0.000000     0.000000


--------------------------------------------------------------------------------------------------------




 Dimension of arrays:
   k-points           NKPTS =      1   k-points in BZ     NKDIM =      1   number of bands    NBANDS=     20
   number of dos      NEDOS =    301   number of ions     NIONS =      9
   non local maximal  LDIM  =      4   non local SUM 2l+1 LMDIM =      8
   total plane-waves  NPLWV = 777600
   max r-space proj   IRMAX =   3965   max aug-charges    IRDMAX=  82140
   dimension x,y,z NGX =    90 NGY =   90 NGZ =   96
   dimension x,y,z NGXF=   180 NGYF=  180 NGZF=  192
   support grid    NGXF=   360 NGYF=  360 NGZF=  384
   ions per type =               1   2   6
   NGX,Y,Z   is equivalent  to a cutoff of  10.94, 10.94, 10.81 a.u.
   NGXF,Y,Z  is equivalent  to a cutoff of  21.88, 21.88, 21.62 a.u.

 SYSTEM =  SiO2                                    
 POSCAR =  O  C                                    

 Startparameter for this run:
   NWRITE =      2    write-flag & timer
   PREC   = acc       normal or accurate (medium, high low for compatibility)
   ISTART =      0    job   : 0-new  1-cont  2-samecut
   ICHARG =      2    charge: 1-file 2-atom 10-const
   ISPIN  =      2    spin polarized calculation?
   LNONCOLLINEAR =      F non collinear calculations
   LSORBIT =      F    spin-orbit coupling
   INIWAV =      1    electr: 0-lowe 1-rand  2-diag
   LASPH  =      F    aspherical Exc in radial PAW
   METAGGA=      F    non-selfconsistent MetaGGA calc.

 Electronic Relaxation 1
   ENCUT  =  400.0 eV  29.40 Ry    5.42 a.u.  22.30 22.30 24.08*2*pi/ulx,y,z
   ENINI  =  400.0     initial cutoff
   ENAUG  =  644.9 eV  augmentation charge cutoff
   NELM   =    100;   NELMIN=  2; NELMDL= -5     # of ELM steps 
   EDIFF  = 0.1E-04   stopping-criterion for ELM
   LREAL  =      T    real-space projection
   NLSPLINE    = F    spline interpolate recip. space projectors
   LCOMPAT=      F    compatible to vasp.4.4
   GGA_COMPAT  = T    GGA compatible to vasp.4.4-vasp.4.6
   LMAXPAW     = -100 max onsite density
   LMAXMIX     =    2 max onsite mixed and CHGCAR
   VOSKOWN=      0    Vosko Wilk Nusair interpolation
   ROPT   =   -0.00025  -0.00025  -0.00025
 Ionic relaxation
   EDIFFG = -.1E-01   stopping-criterion for IOM
   NSW    =    500    number of steps for IOM
   NBLOCK =      1;   KBLOCK =    500    inner block; outer block 
   IBRION =      1    ionic relax: 0-MD 1-quasi-New 2-CG
   NFREE  =      0    steps in history (QN), initial steepest desc. (CG)
   ISIF   =      2    stress and relaxation
   IWAVPR =     11    prediction:  0-non 1-charg 2-wave 3-comb
   ISYM   =      2    0-nonsym 1-usesym 2-fastsym
   LCORR  =      T    Harris-Foulkes like correction to forces

   POTIM  = 0.5000    time-step for ionic-motion
   TEIN   =    0.0    initial temperature
   TEBEG  =    0.0;   TEEND  =   0.0 temperature during run
   SMASS  =  -3.00    Nose mass-parameter (am)
   estimated Nose-frequenzy (Omega)   =  0.10E-29 period in steps =****** mass=  -0.427E-26a.u.
   SCALEE = 1.0000    scale energy and forces
   NPACO  =    256;   APACO  = 16.0  distance and # of slots for P.C.
   PSTRESS=    0.0 pullay stress

  Mass of Ions in am
   POMASS =  32.07 12.01  1.00
  Ionic Valenz
   ZVAL   =   6.00  4.00  1.00
  Atomic Wigner-Seitz radii
   RWIGS  =  -1.00 -1.00 -1.00
  virtual crystal weights 
   VCA    =   1.00  1.00  1.00
   NELECT =      20.0000    total number of electrons
   NUPDOWN=      -1.0000    fix difference up-down

 DOS related values:
   EMIN   =  10.00;   EMAX   =-10.00  energy-range for DOS
   EFERMI =   0.00
   ISMEAR =     0;   SIGMA  =   0.05  broadening in eV -4-tet -1-fermi 0-gaus

 Electronic relaxation 2 (details)
   IALGO  =     38    algorithm
   LDIAG  =      T    sub-space diagonalisation (order eigenvalues)
   LSUBROT=      F    optimize rotation matrix (better conditioning)
   TURBO    =      0    0=normal 1=particle mesh
   IRESTART =      0    0=no restart 2=restart with 2 vectors
   NREBOOT  =      0    no. of reboots
   NMIN     =      0    reboot dimension
   EREF     =   0.00    reference energy to select bands
   IMIX   =      4    mixing-type and parameters
     AMIX     =   0.40;   BMIX     =  1.00
     AMIX_MAG =   1.60;   BMIX_MAG =  1.00
     AMIN     =   0.10
     WC   =   100.;   INIMIX=   1;  MIXPRE=   1;  MAXMIX= -45

 Intra band minimization:
   WEIMIN = 0.0010     energy-eigenvalue tresh-hold
   EBREAK =  0.13E-06  absolut break condition
   DEPER  =   0.30     relativ break condition  

   TIME   =   0.40     timestep for ELM

  volume/ion in A,a.u.               =     265.73      1793.21
  Fermi-wavevector in a.u.,A,eV,Ry     =   0.332296  0.627949  1.502367  0.110421
  Thomas-Fermi vector in A             =   1.229183
 
 Write flags
   LWAVE        =      F    write WAVECAR
   LDOWNSAMPLE  =      F    k-point downsampling of WAVECAR
   LCHARG       =      F    write CHGCAR
   LVTOT        =      F    write LOCPOT, total local potential
   LVHAR        =      F    write LOCPOT, Hartree potential only
   LELF         =      F    write electronic localiz. function (ELF)
   LORBIT       =     11    0 simple, 1 ext, 2 COOP (PROOUT), +10 PAW based schemes


 Dipole corrections
   LMONO  =      F    monopole corrections only (constant potential shift)
   LDIPOL =      F    correct potential (dipole corrections)
   IDIPOL =      0    1-x, 2-y, 3-z, 4-all directions 
   EPSILON=  1.0000000 bulk dielectric constant

 Exchange correlation treatment:
   GGA     =    --    GGA type
   LEXCH   =     8    internal setting for exchange type
   VOSKOWN=      0    Vosko Wilk Nusair interpolation
   LHFCALC =     F    Hartree Fock is set to
   LHFONE  =     F    Hartree Fock one center treatment
   AEXX    =    0.0000 exact exchange contribution

 Linear response parameters
   LEPSILON=     F    determine dielectric tensor
   LRPA    =     F    only Hartree local field effects (RPA)
   LNABLA  =     F    use nabla operator in PAW spheres
   LVEL    =     F    velocity operator in full k-point grid
   LINTERFAST=   F  fast interpolation
   KINTER  =     0    interpolate to denser k-point grid
   CSHIFT  =0.1000    complex shift for real part using Kramers Kronig
   OMEGAMAX=  -1.0    maximum frequency
   DEG_THRESHOLD= 0.2000000E-02 threshold for treating states as degnerate
   RTIME   =   -0.100 relaxation time in fs
  (WPLASMAI=    0.000 imaginary part of plasma frequency in eV, 0.658/RTIME)
   DFIELD  = 0.0000000 0.0000000 0.0000000 field for delta impulse in time
 
 Orbital magnetization related:
   ORBITALMAG=     F  switch on orbital magnetization
   LCHIMAG   =     F  perturbation theory with respect to B field
   DQ        =  0.001000  dq finite difference perturbation B field
   LLRAUG    =     F  two centre corrections for induced B field



--------------------------------------------------------------------------------------------------------


 quasi-Newton-method for relaxation of ions
 charge density and potential will be updated during run
 spin polarized calculation
 Variant of blocked Davidson
 Davidson routine will perform the subspace rotation
 perform sub-space diagonalisation
    after iterative eigenvector-optimisation
 modified Broyden-mixing scheme, WC =      100.0
 initial mixing is a Kerker type mixing with AMIX =  0.4000 and BMIX =      1.0000
 Hartree-type preconditioning will be used
 using additional bands           10
 real space projection scheme for non local part
 use partial core corrections
 calculate Harris-corrections to forces 
   (improved forces if not selfconsistent)
 use gradient corrections 
 use of overlap-Matrix (Vanderbilt PP)
 Gauss-broadening in eV      SIGMA  =   0.05


--------------------------------------------------------------------------------------------------------


  energy-cutoff  :      400.00
  volume of cell :     2391.54
      direct lattice vectors                 reciprocal lattice vectors
    13.675000191  0.000000000  0.000000000     0.073126142  0.042219398  0.000000000
    -6.837500095 11.842897562  0.000000000     0.000000000  0.084438795  0.000000000
     0.000000000  0.000000000 14.767000198     0.000000000  0.000000000  0.067718561

  length of vectors
    13.675000191 13.675000191 14.767000198     0.084438795  0.084438795  0.067718561


 
 k-points in units of 2pi/SCALE and weight: Gamma points only                       
   0.00000000  0.00000000  0.00000000       1.000
 
 k-points in reciprocal lattice and weights: Gamma points only                       
   0.00000000  0.00000000  0.00000000       1.000
 
 position of ions in fractional coordinates (direct lattice) 
   0.76577020  0.48677537  0.65073293
   0.85906369  0.43213865  0.67111874
   0.62632269  0.36359125  0.65190607
   0.87887341  0.40838781  0.60590905
   0.82425898  0.36099806  0.71831358
   0.93549752  0.50245929  0.69959009
   0.62649780  0.29634795  0.69199520
   0.56900626  0.38839889  0.68256479
   0.60103947  0.33623680  0.58194220
 
 position of ions in cartesian coordinates  (Angst):
   7.14358096  5.76483082  9.60937337
   8.79294798  5.11777379  9.91041051
   6.07890763  4.30597398  9.62669711
   9.22624233  4.83649500  8.94745906
   8.80341745  4.27526309 10.60733670
   9.35736336  5.95057388 10.33084695
   6.54107849  3.50961837 10.21869330
   5.12548335  4.59976822 10.07943446
   5.92019567  3.98201804  8.59354060
 


--------------------------------------------------------------------------------------------------------


 k-point  1 :   0.0000 0.0000 0.0000  plane waves:   43405

 maximum and minimum number of plane-waves per node :     10852    10850

 maximum number of plane-waves:     43405
 maximum index in each direction: 
   IXMAX=   22   IYMAX=   22   IZMAX=   24
   IXMIN=  -22   IYMIN=  -22   IZMIN=  -24


 real space projection operators:
  total allocation   :       1418.29 KBytes
  max/ min on nodes  :        358.34        350.46


 parallel 3D FFT for wavefunctions:
    minimum data exchange during FFTs selected (reduces bandwidth)
 parallel 3D FFT for charge:
    minimum data exchange during FFTs selected (reduces bandwidth)


 total amount of memory used by VASP MPI-rank0   149564. kBytes
=======================================================================

   base      :      30000. kBytes
   nonlr-proj:       1043. kBytes
   fftplans  :      63994. kBytes
   grid      :      52770. kBytes
   one-center:         18. kBytes
   wavefun   :       1739. kBytes
 
     INWAV:  cpu time    0.0000: real time    0.0002
 Broyden mixing: mesh for mixing (old mesh)
   NGX = 45   NGY = 45   NGZ = 49
  (NGX  =180   NGY  =180   NGZ  =192)
  gives a total of  99225 points

 initial charge density was supplied:
 charge density of overlapping atoms calculated
 number of electron      20.0000000 magnetization       9.0000000
 keeping initial charge density in first step


--------------------------------------------------------------------------------------------------------


 Maximum index for non-local projection operator          951
 Maximum index for augmentation-charges         4933 (set IRDMAX)


--------------------------------------------------------------------------------------------------------


 First call to EWALD:  gamma=   0.133
 Maximum number of real-space cells 3x 3x 3
 Maximum number of reciprocal cells 3x 3x 3

    FEWALD:  cpu time    0.0014: real time    0.0014


--------------------------------------- Iteration      1(   1)  ---------------------------------------


    POTLOK:  cpu time    0.5373: real time    0.5608
    SETDIJ:  cpu time    0.2597: real time    0.2604
     EDDAV:  cpu time    0.5372: real time    0.5389
       DOS:  cpu time    0.0002: real time    0.0002
    --------------------------------------------
      LOOP:  cpu time    1.3345: real time    1.3603

 eigenvalue-minimisations  :   112
 total energy-change (2. order) : 0.8415855E+02  (-0.4464410E+03)
 number of electron      20.0000000 magnetization       9.0000000
 augmentation part       20.0000000 magnetization       9.0000000

 Free energy of the ion-electron system (eV)
  ---------------------------------------------------
  alpha Z        PSCENC =         0.67333139
  Ewald energy   TEWEN  =       590.80662165
  -Hartree energ DENC   =     -1035.85494714
  -exchange      EXHF   =         0.00000000
  -V(xc)+E(xc)   XCENC  =        55.65066273
  PAW double counting   =       177.71553757     -176.84937462
  entropy T*S    EENTRO =        -0.00566912
  eigenvalues    EBANDS =      -173.92225617
  atomic energy  EATOM  =       645.94464650
  Solvation  Ediel_sol  =         0.00000000
  ---------------------------------------------------
  free energy    TOTEN  =        84.15855278 eV

  energy without entropy =       84.16422191  energy(sigma->0) =       84.16138735


--------------------------------------------------------------------------------------------------------




--------------------------------------- Iteration      1(   2)  ---------------------------------------


     EDDAV:  cpu time    0.6260: real time    0.6347
       DOS:  cpu time    0.0002: real time    0.0002
    --------------------------------------------
      LOOP:  cpu time    0.6261: real time    0.6349

 eigenvalue-minimisations  :   136
 total energy-change (2. order) :-0.9503936E+02  (-0.9382950E+02)
 number of electron      20.0000000 magnetization       9.0000000
 augmentation part       20.0000000 magnetization       9.0000000

 Free energy of the ion-electron system (eV)
  ---------------------------------------------------
  alpha Z        PSCENC =         0.67333139
  Ewald energy   TEWEN  =       590.80662165
  -Hartree energ DENC   =     -1035.85494714
  -exchange      EXHF   =         0.00000000
  -V(xc)+E(xc)   XCENC  =        55.65066273
  PAW double counting   =       177.71553757     -176.84937462
  entropy T*S    EENTRO =        -0.01268477
  eigenvalues    EBANDS =      -268.95460068
  atomic energy  EATOM  =       645.94464650
  Solvation  Ediel_sol  =         0.00000000
  ---------------------------------------------------
  free energy    TOTEN  =       -10.88080737 eV

  energy without entropy =      -10.86812261  energy(sigma->0) =      -10.87446499


--------------------------------------------------------------------------------------------------------




--------------------------------------- Iteration      1(   3)  ---------------------------------------


     EDDAV:  cpu time    0.4737: real time    0.4752
       DOS:  cpu time    0.0001: real time    0.0001
    --------------------------------------------
      LOOP:  cpu time    0.4738: real time    0.4754

 eigenvalue-minimisations  :    96
 total energy-change (2. order) :-0.2437849E+02  (-0.2395866E+02)
 number of electron      20.0000000 magnetization       9.0000000
 augmentation part       20.0000000 magnetization       9.0000000

 Free energy of the ion-electron system (eV)
  ---------------------------------------------------
  alpha Z        PSCENC =         0.67333139
  Ewald energy   TEWEN  =       590.80662165
  -Hartree energ DENC   =     -1035.85494714
  -exchange      EXHF   =         0.00000000
  -V(xc)+E(xc)   XCENC  =        55.65066273
  PAW double counting   =       177.71553757     -176.84937462
  entropy T*S    EENTRO =        -0.00000000
  eigenvalues    EBANDS =      -293.34577846
  atomic energy  EATOM  =       645.94464650
  Solvation  Ediel_sol  =         0.00000000
  ---------------------------------------------------
  free energy    TOTEN  =       -35.25930038 eV

  energy without entropy =      -35.25930038  energy(sigma->0) =      -35.25930038


--------------------------------------------------------------------------------------------------------




--------------------------------------- Iteration      1(   4)  ---------------------------------------


     EDDAV:  cpu time    0.6128: real time    0.6147
       DOS:  cpu time    0.0001: real time    0.0001
    --------------------------------------------
      LOOP:  cpu time    0.6129: real time    0.6148

 eigenvalue-minimisations  :   128
 total energy-change (2. order) :-0.1895035E+01  (-0.1888163E+01)
 number of electron      20.0000000 magnetization       9.0000000
 augmentation part       20.0000000 magnetization       9.0000000

 Free energy of the ion-electron system (eV)
  ---------------------------------------------------
  alpha Z        PSCENC =         0.67333139
  Ewald energy   TEWEN  =       590.80662165
  -Hartree energ DENC   =     -1035.85494714
  -exchange      EXHF   =         0.00000000
  -V(xc)+E(xc)   XCENC  =        55.65066273
  PAW double counting   =       177.71553757     -176.84937462
  entropy T*S    EENTRO =        -0.00000000
  eigenvalues    EBANDS =      -295.24081375
  atomic energy  EATOM  =       645.94464650
  Solvation  Ediel_sol  =         0.00000000
  ---------------------------------------------------
  free energy    TOTEN  =       -37.15433567 eV

  energy without entropy =      -37.15433567  energy(sigma->0) =      -37.15433567


--------------------------------------------------------------------------------------------------------




--------------------------------------- Iteration      1(   5)  ---------------------------------------


     EDDAV:  cpu time    0.5230: real time    0.5245
       DOS:  cpu time    0.0001: real time    0.0001
    CHARGE:  cpu time    0.2911: real time    0.2919
    MIXING:  cpu time    0.0307: real time    0.0308
    --------------------------------------------
      LOOP:  cpu time    0.8449: real time    0.8473

 eigenvalue-minimisations  :   108
 total energy-change (2. order) :-0.2051821E-01  (-0.2050237E-01)
 number of electron      20.0000000 magnetization       6.7926410
 augmentation part       -0.4428147 magnetization       6.8037415

 Broyden mixing:
  rms(total) = 0.18868E+01    rms(broyden)= 0.18864E+01
  rms(prec ) = 0.20513E+01
  weight for this iteration     100.00

 Free energy of the ion-electron system (eV)
  ---------------------------------------------------
  alpha Z        PSCENC =         0.67333139
  Ewald energy   TEWEN  =       590.80662165
  -Hartree energ DENC   =     -1035.85494714
  -exchange      EXHF   =         0.00000000
  -V(xc)+E(xc)   XCENC  =        55.65066273
  PAW double counting   =       177.71553757     -176.84937462
  entropy T*S    EENTRO =        -0.00000000
  eigenvalues    EBANDS =      -295.26133196
  atomic energy  EATOM  =       645.94464650
  Solvation  Ediel_sol  =         0.00000000
  ---------------------------------------------------
  free energy    TOTEN  =       -37.17485388 eV

  energy without entropy =      -37.17485388  energy(sigma->0) =      -37.17485388


--------------------------------------------------------------------------------------------------------




--------------------------------------- Iteration      1(   6)  ---------------------------------------


    POTLOK:  cpu time    0.5411: real time    0.5432
    SETDIJ:  cpu time    0.2600: real time    0.2606
     EDDAV:  cpu time    0.4758: real time    0.4773
       DOS:  cpu time    0.0001: real time    0.0001
    CHARGE:  cpu time    0.2934: real time    0.2942
    MIXING:  cpu time    0.0275: real time    0.0276
    --------------------------------------------
      LOOP:  cpu time    1.5980: real time    1.6030

 eigenvalue-minimisations  :    96
 total energy-change (2. order) : 0.2193737E+02  (-0.6458752E+01)
 number of electron      20.0000000 magnetization       5.0735427
 augmentation part       -0.4884953 magnetization       5.0789069

 Broyden mixing:
  rms(total) = 0.81198E+00    rms(broyden)= 0.81161E+00
  rms(prec ) = 0.89779E+00
  weight for this iteration     100.00

 eigenvalues of (default mixing * dielectric matrix)
  average eigenvalue GAMMA=   0.9298
  0.9298

 Free energy of the ion-electron system (eV)
  ---------------------------------------------------
  alpha Z        PSCENC =         0.67333139
  Ewald energy   TEWEN  =       590.80662165
  -Hartree energ DENC   =     -1073.32649846
  -exchange      EXHF   =         0.00000000
  -V(xc)+E(xc)   XCENC  =        78.87229150
  PAW double counting   =       235.58140935     -235.16172288
  entropy T*S    EENTRO =        -0.00000000
  eigenvalues    EBANDS =      -258.62756574
  atomic energy  EATOM  =       645.94464650
  Solvation  Ediel_sol  =         0.00000000
  ---------------------------------------------------
  free energy    TOTEN  =       -15.23748669 eV

  energy without entropy =      -15.23748669  energy(sigma->0) =      -15.23748669


--------------------------------------------------------------------------------------------------------




--------------------------------------- Iteration      1(   7)  ---------------------------------------


    POTLOK:  cpu time    0.5293: real time    0.5308
    SETDIJ:  cpu time    0.2674: real time    0.2681
     EDDAV:  cpu time    0.4671: real time    0.4682
       DOS:  cpu time    0.0001: real time    0.0001
    CHARGE:  cpu time    0.2816: real time    0.2825
    MIXING:  cpu time    0.0342: real time    0.0343
    --------------------------------------------
      LOOP:  cpu time    1.5797: real time    1.5841

 eigenvalue-minimisations  :    92
 total energy-change (2. order) :-0.1635545E+02  (-0.1541230E+01)
 number of electron      20.0000000 magnetization       3.5731607
 augmentation part       -0.5144335 magnetization       3.5814793

 Broyden mixing:
  rms(total) = 0.46662E+00    rms(broyden)= 0.46653E+00
  rms(prec ) = 0.50917E+00
  weight for this iteration     100.00

 eigenvalues of (default mixing * dielectric matrix)
  average eigenvalue GAMMA=   1.0032
  1.0032  1.0032

 Free energy of the ion-electron system (eV)
  ---------------------------------------------------
  alpha Z        PSCENC =         0.67333139
  Ewald energy   TEWEN  =       590.80662165
  -Hartree energ DENC   =     -1093.93080098
  -exchange      EXHF   =         0.00000000
  -V(xc)+E(xc)   XCENC  =        66.89765273
  PAW double counting   =       266.08389906     -265.87577833
  entropy T*S    EENTRO =        -0.00000000
  eigenvalues    EBANDS =      -242.19251135
  atomic energy  EATOM  =       645.94464650
  Solvation  Ediel_sol  =         0.00000000
  ---------------------------------------------------
  free energy    TOTEN  =       -31.59293934 eV

  energy without entropy =      -31.59293934  energy(sigma->0) =      -31.59293934


--------------------------------------------------------------------------------------------------------




--------------------------------------- Iteration      1(   8)  ---------------------------------------


    POTLOK:  cpu time    0.5353: real time    0.5369
    SETDIJ:  cpu time    0.2638: real time    0.2644
     EDDAV:  cpu time    0.5479: real time    0.5493
       DOS:  cpu time    0.0001: real time    0.0001
    CHARGE:  cpu time    0.2795: real time    0.2803
    MIXING:  cpu time    0.0362: real time    0.0363
    --------------------------------------------
      LOOP:  cpu time    1.6628: real time    1.6674

 eigenvalue-minimisations  :   112
 total energy-change (2. order) :-0.3816085E+01  (-0.1896479E+00)
 number of electron      20.0000000 magnetization       1.9418512
 augmentation part       -0.5015410 magnetization       1.9444172

 Broyden mixing:
  rms(total) = 0.26143E+00    rms(broyden)= 0.26142E+00
  rms(prec ) = 0.28560E+00
  weight for this iteration     100.00

 eigenvalues of (default mixing * dielectric matrix)
  average eigenvalue GAMMA=   1.2409
  1.9164  1.0566  0.7498

 Free energy of the ion-electron system (eV)
  ---------------------------------------------------
  alpha Z        PSCENC =         0.67333139
  Ewald energy   TEWEN  =       590.80662165
  -Hartree energ DENC   =     -1102.00560807
  -exchange      EXHF   =         0.00000000
  -V(xc)+E(xc)   XCENC  =        64.26601307
  PAW double counting   =       275.82380739     -275.60812093
  entropy T*S    EENTRO =        -0.00000000
  eigenvalues    EBANDS =      -235.30971534
  atomic energy  EATOM  =       645.94464650
  Solvation  Ediel_sol  =         0.00000000
  ---------------------------------------------------
  free energy    TOTEN  =       -35.40902435 eV

  energy without entropy =      -35.40902435  energy(sigma->0) =      -35.40902435


--------------------------------------------------------------------------------------------------------




--------------------------------------- Iteration      1(   9)  ---------------------------------------


    POTLOK:  cpu time    0.5405: real time    0.5421
    SETDIJ:  cpu time    0.2632: real time    0.2639
     EDDAV:  cpu time    0.5588: real time    0.5605
       DOS:  cpu time    0.0001: real time    0.0001
    CHARGE:  cpu time    0.2817: real time    0.2824
    MIXING:  cpu time    0.0345: real time    0.0346
    --------------------------------------------
      LOOP:  cpu time    1.6788: real time    1.6836

 eigenvalue-minimisations  :   116
 total energy-change (2. order) :-0.6201975E+01  (-0.3566532E+00)
 number of electron      20.0000000 magnetization       1.4776800
 augmentation part       -0.4927530 magnetization       1.4772704

 Broyden mixing:
  rms(total) = 0.98263E-01    rms(broyden)= 0.98233E-01
  rms(prec ) = 0.11061E+00
  weight for this iteration     100.00

 eigenvalues of (default mixing * dielectric matrix)
  average eigenvalue GAMMA=   1.2150
  2.0159  1.2817  0.7981  0.7644

 Free energy of the ion-electron system (eV)
  ---------------------------------------------------
  alpha Z        PSCENC =         0.67333139
  Ewald energy   TEWEN  =       590.80662165
  -Hartree energ DENC   =     -1110.21593277
  -exchange      EXHF   =         0.00000000
  -V(xc)+E(xc)   XCENC  =        59.86933267
  PAW double counting   =       282.99644643     -282.76595542
  entropy T*S    EENTRO =        -0.00000000
  eigenvalues    EBANDS =      -228.91948968
  atomic energy  EATOM  =       645.94464650
  Solvation  Ediel_sol  =         0.00000000
  ---------------------------------------------------
  free energy    TOTEN  =       -41.61099925 eV

  energy without entropy =      -41.61099925  energy(sigma->0) =      -41.61099925


--------------------------------------------------------------------------------------------------------




--------------------------------------- Iteration      1(  10)  ---------------------------------------


    POTLOK:  cpu time    0.5392: real time    0.5407
    SETDIJ:  cpu time    0.2745: real time    0.2796
     EDDAV:  cpu time    0.5020: real time    0.5032
       DOS:  cpu time    0.0002: real time    0.0001
    CHARGE:  cpu time    0.2862: real time    0.2870
    MIXING:  cpu time    0.0378: real time    0.0379
    --------------------------------------------
      LOOP:  cpu time    1.6400: real time    1.6486

 eigenvalue-minimisations  :    96
 total energy-change (2. order) :-0.8385465E+00  (-0.1937394E-01)
 number of electron      20.0000000 magnetization       0.7064423
 augmentation part       -0.4964152 magnetization       0.7066383

 Broyden mixing:
  rms(total) = 0.66432E-01    rms(broyden)= 0.66423E-01
  rms(prec ) = 0.76516E-01
  weight for this iteration     100.00

 eigenvalues of (default mixing * dielectric matrix)
  average eigenvalue GAMMA=   1.2795
  1.9192  1.9192  0.9417  0.9417  0.6757

 Free energy of the ion-electron system (eV)
  ---------------------------------------------------
  alpha Z        PSCENC =         0.67333139
  Ewald energy   TEWEN  =       590.80662165
  -Hartree energ DENC   =     -1110.57951471
  -exchange      EXHF   =         0.00000000
  -V(xc)+E(xc)   XCENC  =        59.15601297
  PAW double counting   =       281.17556311     -280.91927699
  entropy T*S    EENTRO =        -0.00000000
  eigenvalues    EBANDS =      -228.70692963
  atomic energy  EATOM  =       645.94464650
  Solvation  Ediel_sol  =         0.00000000
  ---------------------------------------------------
  free energy    TOTEN  =       -42.44954572 eV

  energy without entropy =      -42.44954572  energy(sigma->0) =      -42.44954572


--------------------------------------------------------------------------------------------------------




--------------------------------------- Iteration      1(  11)  ---------------------------------------


    POTLOK:  cpu time    0.5464: real time    0.5480
    SETDIJ:  cpu time    0.2645: real time    0.2651
     EDDAV:  cpu time    0.4543: real time    0.4555
       DOS:  cpu time    0.0001: real time    0.0001
    CHARGE:  cpu time    0.2796: real time    0.2805
    MIXING:  cpu time    0.0359: real time    0.0360
    --------------------------------------------
      LOOP:  cpu time    1.5808: real time    1.5852

 eigenvalue-minimisations  :    88
 total energy-change (2. order) :-0.8662883E+00  (-0.2585220E-01)
 number of electron      20.0000000 magnetization       0.4194650
 augmentation part       -0.5028371 magnetization       0.4186081

 Broyden mixing:
  rms(total) = 0.33181E-01    rms(broyden)= 0.33174E-01
  rms(prec ) = 0.40149E-01
  weight for this iteration     100.00

 eigenvalues of (default mixing * dielectric matrix)
  average eigenvalue GAMMA=   1.3339
  2.3147  2.3147  1.1272  0.8081  0.8081  0.6306

 Free energy of the ion-electron system (eV)
  ---------------------------------------------------
  alpha Z        PSCENC =         0.67333139
  Ewald energy   TEWEN  =       590.80662165
  -Hartree energ DENC   =     -1110.58939928
  -exchange      EXHF   =         0.00000000
  -V(xc)+E(xc)   XCENC  =        58.39352815
  PAW double counting   =       277.81431416     -277.52345123
  entropy T*S    EENTRO =        -0.00000000
  eigenvalues    EBANDS =      -228.83542530
  atomic energy  EATOM  =       645.94464650
  Solvation  Ediel_sol  =         0.00000000
  ---------------------------------------------------
  free energy    TOTEN  =       -43.31583397 eV

  energy without entropy =      -43.31583397  energy(sigma->0) =      -43.31583397


--------------------------------------------------------------------------------------------------------




--------------------------------------- Iteration      1(  12)  ---------------------------------------


    POTLOK:  cpu time    0.5410: real time    0.5426
    SETDIJ:  cpu time    0.2644: real time    0.2651
     EDDAV:  cpu time    0.4805: real time    0.4834
       DOS:  cpu time    0.0001: real time    0.0001
    CHARGE:  cpu time    0.3011: real time    0.3019
    MIXING:  cpu time    0.0246: real time    0.0247
    --------------------------------------------
      LOOP:  cpu time    1.6117: real time    1.6179

 eigenvalue-minimisations  :    96
 total energy-change (2. order) :-0.2998711E+00  (-0.4672208E-02)
 number of electron      20.0000000 magnetization       0.1008068
 augmentation part       -0.5037856 magnetization       0.1006634

 Broyden mixing:
  rms(total) = 0.18709E-01    rms(broyden)= 0.18705E-01
  rms(prec ) = 0.26006E-01
  weight for this iteration     100.00

 eigenvalues of (default mixing * dielectric matrix)
  average eigenvalue GAMMA=   1.3993
  2.9203  2.0608  1.4782  1.0719  0.8777  0.7547  0.6313

 Free energy of the ion-electron system (eV)
  ---------------------------------------------------
  alpha Z        PSCENC =         0.67333139
  Ewald energy   TEWEN  =       590.80662165
  -Hartree energ DENC   =     -1111.15153259
  -exchange      EXHF   =         0.00000000
  -V(xc)+E(xc)   XCENC  =        58.14916578
  PAW double counting   =       277.88066279     -277.58977149
  entropy T*S    EENTRO =        -0.00000000
  eigenvalues    EBANDS =      -228.32882908
  atomic energy  EATOM  =       645.94464650
  Solvation  Ediel_sol  =         0.00000000
  ---------------------------------------------------
  free energy    TOTEN  =       -43.61570506 eV

  energy without entropy =      -43.61570506  energy(sigma->0) =      -43.61570506


--------------------------------------------------------------------------------------------------------




--------------------------------------- Iteration      1(  13)  ---------------------------------------


    POTLOK:  cpu time    0.5287: real time    0.5407
    SETDIJ:  cpu time    0.2592: real time    0.2602
     EDDAV:  cpu time    0.4871: real time    0.4884
       DOS:  cpu time    0.0001: real time    0.0001
    CHARGE:  cpu time    0.2788: real time    0.2796
    MIXING:  cpu time    0.0390: real time    0.0391
    --------------------------------------------
      LOOP:  cpu time    1.5929: real time    1.6081

 eigenvalue-minimisations  :    96
 total energy-change (2. order) :-0.3202577E+00  (-0.4239173E-02)
 number of electron      20.0000000 magnetization       0.0028545
 augmentation part       -0.5022696 magnetization       0.0028952

 Broyden mixing:
  rms(total) = 0.99107E-02    rms(broyden)= 0.99080E-02
  rms(prec ) = 0.15266E-01
  weight for this iteration     100.00

 eigenvalues of (default mixing * dielectric matrix)
  average eigenvalue GAMMA=   1.4365
  3.5581  2.0912  1.7202  1.1031  0.8238  0.8238  0.7405  0.6312

 Free energy of the ion-electron system (eV)
  ---------------------------------------------------
  alpha Z        PSCENC =         0.67333139
  Ewald energy   TEWEN  =       590.80662165
  -Hartree energ DENC   =     -1111.66280658
  -exchange      EXHF   =         0.00000000
  -V(xc)+E(xc)   XCENC  =        57.83692860
  PAW double counting   =       277.94963838     -277.66236485
  entropy T*S    EENTRO =        -0.00000000
  eigenvalues    EBANDS =      -227.82195788
  atomic energy  EATOM  =       645.94464650
  Solvation  Ediel_sol  =         0.00000000
  ---------------------------------------------------
  free energy    TOTEN  =       -43.93596280 eV

  energy without entropy =      -43.93596280  energy(sigma->0) =      -43.93596280


--------------------------------------------------------------------------------------------------------




--------------------------------------- Iteration      1(  14)  ---------------------------------------


    POTLOK:  cpu time    0.5388: real time    0.5405
    SETDIJ:  cpu time    0.2700: real time    0.2707
     EDDAV:  cpu time    0.4661: real time    0.4675
       DOS:  cpu time    0.0001: real time    0.0001
    CHARGE:  cpu time    0.3080: real time    0.3087
    MIXING:  cpu time    0.0152: real time    0.0152
    --------------------------------------------
      LOOP:  cpu time    1.5982: real time    1.6027

 eigenvalue-minimisations  :    92
 total energy-change (2. order) :-0.6391785E-01  (-0.6532235E-03)
 number of electron      20.0000000 magnetization      -0.0257241
 augmentation part       -0.5019281 magnetization      -0.0257699

 Broyden mixing:
  rms(total) = 0.53076E-02    rms(broyden)= 0.53065E-02
  rms(prec ) = 0.10292E-01
  weight for this iteration     100.00

 eigenvalues of (default mixing * dielectric matrix)
  average eigenvalue GAMMA=   1.4296
  3.7466  2.1328  1.6537  1.1456  1.1456  0.8850  0.8010  0.7322  0.6244

 Free energy of the ion-electron system (eV)
  ---------------------------------------------------
  alpha Z        PSCENC =         0.67333139
  Ewald energy   TEWEN  =       590.80662165
  -Hartree energ DENC   =     -1111.82680561
  -exchange      EXHF   =         0.00000000
  -V(xc)+E(xc)   XCENC  =        57.76686398
  PAW double counting   =       277.71773917     -277.42829320
  entropy T*S    EENTRO =        -0.00000000
  eigenvalues    EBANDS =      -227.65398451
  atomic energy  EATOM  =       645.94464650
  Solvation  Ediel_sol  =         0.00000000
  ---------------------------------------------------
  free energy    TOTEN  =       -43.99988064 eV

  energy without entropy =      -43.99988064  energy(sigma->0) =      -43.99988064


--------------------------------------------------------------------------------------------------------




--------------------------------------- Iteration      1(  15)  ---------------------------------------


    POTLOK:  cpu time    0.5336: real time    0.5356
    SETDIJ:  cpu time    0.2613: real time    0.2621
     EDDAV:  cpu time    0.5463: real time    0.5641
       DOS:  cpu time    0.0001: real time    0.0001
    CHARGE:  cpu time    0.3080: real time    0.3094
    MIXING:  cpu time    0.0168: real time    0.0168
    --------------------------------------------
      LOOP:  cpu time    1.6661: real time    1.6880

 eigenvalue-minimisations  :   112
 total energy-change (2. order) :-0.8931764E-02  (-0.1653088E-03)
 number of electron      20.0000000 magnetization      -0.0395493
 augmentation part       -0.5026104 magnetization      -0.0395631

 Broyden mixing:
  rms(total) = 0.35233E-02    rms(broyden)= 0.35223E-02
  rms(prec ) = 0.75829E-02
  weight for this iteration     100.00

 eigenvalues of (default mixing * dielectric matrix)
  average eigenvalue GAMMA=   1.4635
  3.9239  2.1139  1.9760  1.6342  1.0282  0.9130  0.9130  0.8202  0.6887  0.6238

 Free energy of the ion-electron system (eV)
  ---------------------------------------------------
  alpha Z        PSCENC =         0.67333139
  Ewald energy   TEWEN  =       590.80662165
  -Hartree energ DENC   =     -1112.02567294
  -exchange      EXHF   =         0.00000000
  -V(xc)+E(xc)   XCENC  =        57.75751355
  PAW double counting   =       277.66234788     -277.37168543
  entropy T*S    EENTRO =        -0.00000000
  eigenvalues    EBANDS =      -227.45591500
  atomic energy  EATOM  =       645.94464650
  Solvation  Ediel_sol  =         0.00000000
  ---------------------------------------------------
  free energy    TOTEN  =       -44.00881241 eV

  energy without entropy =      -44.00881241  energy(sigma->0) =      -44.00881241


--------------------------------------------------------------------------------------------------------




--------------------------------------- Iteration      1(  16)  ---------------------------------------


    POTLOK:  cpu time    0.5302: real time    0.5316
    SETDIJ:  cpu time    0.2600: real time    0.2608
     EDDAV:  cpu time    0.5309: real time    0.5324
       DOS:  cpu time    0.0001: real time    0.0001
    CHARGE:  cpu time    0.2824: real time    0.2831
    MIXING:  cpu time    0.0359: real time    0.0360
    --------------------------------------------
      LOOP:  cpu time    1.6394: real time    1.6440

 eigenvalue-minimisations  :   108
 total energy-change (2. order) :-0.5353039E-02  (-0.1353091E-03)
 number of electron      20.0000000 magnetization      -0.0328078
 augmentation part       -0.5027968 magnetization      -0.0327997

 Broyden mixing:
  rms(total) = 0.25154E-02    rms(broyden)= 0.25152E-02
  rms(prec ) = 0.47682E-02
  weight for this iteration     100.00

 eigenvalues of (default mixing * dielectric matrix)
  average eigenvalue GAMMA=   1.4807
  4.1110  2.5799  2.0782  1.5374  1.0985  1.0985  0.8852  0.7969  0.7969  0.6885
  0.6167

 Free energy of the ion-electron system (eV)
  ---------------------------------------------------
  alpha Z        PSCENC =         0.67333139
  Ewald energy   TEWEN  =       590.80662165
  -Hartree energ DENC   =     -1112.29874880
  -exchange      EXHF   =         0.00000000
  -V(xc)+E(xc)   XCENC  =        57.75451347
  PAW double counting   =       277.69866853     -277.40821903
  entropy T*S    EENTRO =        -0.00000000
  eigenvalues    EBANDS =      -227.18497914
  atomic energy  EATOM  =       645.94464650
  Solvation  Ediel_sol  =         0.00000000
  ---------------------------------------------------
  free energy    TOTEN  =       -44.01416545 eV

  energy without entropy =      -44.01416545  energy(sigma->0) =      -44.01416545


--------------------------------------------------------------------------------------------------------




--------------------------------------- Iteration      1(  17)  ---------------------------------------


    POTLOK:  cpu time    0.5389: real time    0.5406
    SETDIJ:  cpu time    0.2662: real time    0.2669
     EDDAV:  cpu time    0.4704: real time    0.4717
       DOS:  cpu time    0.0001: real time    0.0001
    CHARGE:  cpu time    0.3086: real time    0.3094
    MIXING:  cpu time    0.0200: real time    0.0200
    --------------------------------------------
      LOOP:  cpu time    1.6042: real time    1.6088

 eigenvalue-minimisations  :    92
 total energy-change (2. order) : 0.4263826E-03  (-0.8200922E-04)
 number of electron      20.0000000 magnetization      -0.0145400
 augmentation part       -0.5026502 magnetization      -0.0145485

 Broyden mixing:
  rms(total) = 0.18094E-02    rms(broyden)= 0.18093E-02
  rms(prec ) = 0.29889E-02
  weight for this iteration     100.00

 eigenvalues of (default mixing * dielectric matrix)
  average eigenvalue GAMMA=   1.5162
  4.3042  3.0345  1.8600  1.8600  1.1765  1.1765  1.0564  0.8495  0.8495  0.7364
  0.6187  0.6721

 Free energy of the ion-electron system (eV)
  ---------------------------------------------------
  alpha Z        PSCENC =         0.67333139
  Ewald energy   TEWEN  =       590.80662165
  -Hartree energ DENC   =     -1112.47139400
  -exchange      EXHF   =         0.00000000
  -V(xc)+E(xc)   XCENC  =        57.75672098
  PAW double counting   =       277.67453852     -277.38369844
  entropy T*S    EENTRO =        -0.00000000
  eigenvalues    EBANDS =      -227.01450566
  atomic energy  EATOM  =       645.94464650
  Solvation  Ediel_sol  =         0.00000000
  ---------------------------------------------------
  free energy    TOTEN  =       -44.01373906 eV

  energy without entropy =      -44.01373906  energy(sigma->0) =      -44.01373906


--------------------------------------------------------------------------------------------------------




--------------------------------------- Iteration      1(  18)  ---------------------------------------


    POTLOK:  cpu time    0.5298: real time    0.5314
    SETDIJ:  cpu time    0.3079: real time    0.3095
     EDDAV:  cpu time    0.4509: real time    0.4744
       DOS:  cpu time    0.0001: real time    0.0001
    CHARGE:  cpu time    0.2774: real time    0.3492
    MIXING:  cpu time    0.0313: real time    0.0314
    --------------------------------------------
      LOOP:  cpu time    1.5975: real time    1.6961

 eigenvalue-minimisations  :    84
 total energy-change (2. order) :-0.1053721E-01  (-0.5517260E-04)
 number of electron      20.0000000 magnetization      -0.0042675
 augmentation part       -0.5026318 magnetization      -0.0042664

 Broyden mixing:
  rms(total) = 0.11044E-02    rms(broyden)= 0.11043E-02
  rms(prec ) = 0.16626E-02
  weight for this iteration     100.00

 eigenvalues of (default mixing * dielectric matrix)
  average eigenvalue GAMMA=   1.5990
  4.8196  3.5088  2.1497  2.1497  1.3118  1.1476  1.1476  0.8905  0.8320  0.8320
  0.7267  0.6179  0.6530

 Free energy of the ion-electron system (eV)
  ---------------------------------------------------
  alpha Z        PSCENC =         0.67333139
  Ewald energy   TEWEN  =       590.80662165
  -Hartree energ DENC   =     -1112.60823161
  -exchange      EXHF   =         0.00000000
  -V(xc)+E(xc)   XCENC  =        57.74880419
  PAW double counting   =       277.59827995     -277.30637248
  entropy T*S    EENTRO =        -0.00000000
  eigenvalues    EBANDS =      -226.88135587
  atomic energy  EATOM  =       645.94464650
  Solvation  Ediel_sol  =         0.00000000
  ---------------------------------------------------
  free energy    TOTEN  =       -44.02427627 eV

  energy without entropy =      -44.02427627  energy(sigma->0) =      -44.02427627


--------------------------------------------------------------------------------------------------------




--------------------------------------- Iteration      1(  19)  ---------------------------------------


    POTLOK:  cpu time    0.5455: real time    0.5613
    SETDIJ:  cpu time    0.2582: real time    0.2752
     EDDAV:  cpu time    0.4756: real time    0.4774
       DOS:  cpu time    0.0001: real time    0.0001
    CHARGE:  cpu time    0.2868: real time    0.2914
    MIXING:  cpu time    0.0351: real time    0.0354
    --------------------------------------------
      LOOP:  cpu time    1.6013: real time    1.6409

 eigenvalue-minimisations  :    92
 total energy-change (2. order) :-0.5047175E-02  (-0.1551276E-04)
 number of electron      20.0000000 magnetization       0.0003562
 augmentation part       -0.5026838 magnetization       0.0003632

 Broyden mixing:
  rms(total) = 0.57104E-03    rms(broyden)= 0.57096E-03
  rms(prec ) = 0.95866E-03
  weight for this iteration     100.00

 eigenvalues of (default mixing * dielectric matrix)
  average eigenvalue GAMMA=   1.7135
  6.0764  3.8719  2.3323  2.3323  1.4849  1.1804  1.1804  1.0787  0.8458  0.8229
  0.8229  0.7015  0.6142  0.6450

 Free energy of the ion-electron system (eV)
  ---------------------------------------------------
  alpha Z        PSCENC =         0.67333139
  Ewald energy   TEWEN  =       590.80662165
  -Hartree energ DENC   =     -1112.68034927
  -exchange      EXHF   =         0.00000000
  -V(xc)+E(xc)   XCENC  =        57.74573596
  PAW double counting   =       277.58431712     -277.29223276
  entropy T*S    EENTRO =        -0.00000000
  eigenvalues    EBANDS =      -226.81139404
  atomic energy  EATOM  =       645.94464650
  Solvation  Ediel_sol  =         0.00000000
  ---------------------------------------------------
  free energy    TOTEN  =       -44.02932345 eV

  energy without entropy =      -44.02932345  energy(sigma->0) =      -44.02932345


--------------------------------------------------------------------------------------------------------




--------------------------------------- Iteration      1(  20)  ---------------------------------------


    POTLOK:  cpu time    0.5413: real time    0.5434
    SETDIJ:  cpu time    0.2643: real time    0.2650
     EDDAV:  cpu time    0.5219: real time    0.5235
       DOS:  cpu time    0.0001: real time    0.0001
    CHARGE:  cpu time    0.2787: real time    0.2794
    MIXING:  cpu time    0.0433: real time    0.0434
    --------------------------------------------
      LOOP:  cpu time    1.6496: real time    1.6547

 eigenvalue-minimisations  :   104
 total energy-change (2. order) :-0.1220280E-02  (-0.4090964E-05)
 number of electron      20.0000000 magnetization       0.0013514
 augmentation part       -0.5027250 magnetization       0.0013519

 Broyden mixing:
  rms(total) = 0.30269E-03    rms(broyden)= 0.30258E-03
  rms(prec ) = 0.61829E-03
  weight for this iteration     100.00

 eigenvalues of (default mixing * dielectric matrix)
  average eigenvalue GAMMA=   1.7931
  7.5104  3.9798  2.6661  2.2092  1.6755  1.2602  1.1228  1.1228  0.9613  0.8418
  0.8418  0.7675  0.6847  0.6131  0.6400

 Free energy of the ion-electron system (eV)
  ---------------------------------------------------
  alpha Z        PSCENC =         0.67333139
  Ewald energy   TEWEN  =       590.80662165
  -Hartree energ DENC   =     -1112.70708756
  -exchange      EXHF   =         0.00000000
  -V(xc)+E(xc)   XCENC  =        57.74474652
  PAW double counting   =       277.58590939     -277.29403188
  entropy T*S    EENTRO =        -0.00000000
  eigenvalues    EBANDS =      -226.78467973
  atomic energy  EATOM  =       645.94464650
  Solvation  Ediel_sol  =         0.00000000
  ---------------------------------------------------
  free energy    TOTEN  =       -44.03054373 eV

  energy without entropy =      -44.03054373  energy(sigma->0) =      -44.03054373


--------------------------------------------------------------------------------------------------------




--------------------------------------- Iteration      1(  21)  ---------------------------------------


    POTLOK:  cpu time    0.5247: real time    0.6378
    SETDIJ:  cpu time    0.2639: real time    0.2645
     EDDAV:  cpu time    0.4953: real time    0.4967
       DOS:  cpu time    0.0001: real time    0.0001
    CHARGE:  cpu time    0.3189: real time    0.3212
    MIXING:  cpu time    0.0404: real time    0.0406
    --------------------------------------------
      LOOP:  cpu time    1.6433: real time    1.7609

 eigenvalue-minimisations  :    88
 total energy-change (2. order) :-0.6053323E-04  (-0.8623694E-06)
 number of electron      20.0000000 magnetization       0.0014977
 augmentation part       -0.5027234 magnetization       0.0014992

 Broyden mixing:
  rms(total) = 0.21898E-03    rms(broyden)= 0.21892E-03
  rms(prec ) = 0.45448E-03
  weight for this iteration     100.00

 eigenvalues of (default mixing * dielectric matrix)
  average eigenvalue GAMMA=   1.8077
  8.1043  4.0213  2.8438  2.0896  1.8735  1.4722  1.1525  1.1525  0.9977  0.9050
  0.8258  0.8258  0.7087  0.7039  0.6171  0.6298

 Free energy of the ion-electron system (eV)
  ---------------------------------------------------
  alpha Z        PSCENC =         0.67333139
  Ewald energy   TEWEN  =       590.80662165
  -Hartree energ DENC   =     -1112.70839288
  -exchange      EXHF   =         0.00000000
  -V(xc)+E(xc)   XCENC  =        57.74432641
  PAW double counting   =       277.57883313     -277.28694893
  entropy T*S    EENTRO =        -0.00000000
  eigenvalues    EBANDS =      -226.78302152
  atomic energy  EATOM  =       645.94464650
  Solvation  Ediel_sol  =         0.00000000
  ---------------------------------------------------
  free energy    TOTEN  =       -44.03060426 eV

  energy without entropy =      -44.03060426  energy(sigma->0) =      -44.03060426


--------------------------------------------------------------------------------------------------------




--------------------------------------- Iteration      1(  22)  ---------------------------------------


    POTLOK:  cpu time    0.5346: real time    0.5362
    SETDIJ:  cpu time    0.2611: real time    0.2618
     EDDAV:  cpu time    0.4185: real time    0.4197
       DOS:  cpu time    0.0001: real time    0.0001
    --------------------------------------------
      LOOP:  cpu time    1.2143: real time    1.2179

 eigenvalue-minimisations  :    80
 total energy-change (2. order) :-0.4832547E-05  (-0.4986248E-06)
 number of electron      20.0000000 magnetization       0.0014977
 augmentation part       -0.5027234 magnetization       0.0014992

 Free energy of the ion-electron system (eV)
  ---------------------------------------------------
  alpha Z        PSCENC =         0.67333139
  Ewald energy   TEWEN  =       590.80662165
  -Hartree energ DENC   =     -1112.70472584
  -exchange      EXHF   =         0.00000000
  -V(xc)+E(xc)   XCENC  =        57.74411399
  PAW double counting   =       277.57724229     -277.28530634
  entropy T*S    EENTRO =        -0.00000000
  eigenvalues    EBANDS =      -226.78653274
  atomic energy  EATOM  =       645.94464650
  Solvation  Ediel_sol  =         0.00000000
  ---------------------------------------------------
  free energy    TOTEN  =       -44.03060909 eV

  energy without entropy =      -44.03060909  energy(sigma->0) =      -44.03060909


--------------------------------------------------------------------------------------------------------




 average (electrostatic) potential at core
  the test charge radii are     0.9698  0.6991  0.5201
  (the norm of the test charge is              1.0000)
       1 -95.4968       2 -58.8770       3 -58.8775       4 -41.8312       5 -42.0963
       6 -42.1056       7 -42.1069       8 -42.0147       9 -41.8304
 
 
 
 E-fermi :  -4.5108     XC(G=0):  -0.5854     alpha+bet : -0.2388


 spin component 1

 k-point     1 :       0.0000    0.0000    0.0000
  band No.  band energies     occupation 
      1     -19.6398      1.00000
      2     -17.3030      1.00000
      3     -14.4337      1.00000
      4     -10.7043      1.00000
      5     -10.4683      1.00000
      6     -10.2377      1.00000
      7      -9.8417      1.00000
      8      -8.7454      1.00000
      9      -7.2436      1.00000
     10      -4.7757      1.00000
     11      -0.4789      0.00000
     12      -0.1542      0.00000
     13       0.3066      0.00000
     14       0.3927      0.00000
     15       0.4311      0.00000
     16       0.5524      0.00000
     17       0.7353      0.00000
     18       0.8517      0.00000
     19       0.9695      0.00000
     20       1.1059      0.00000

 spin component 2

 k-point     1 :       0.0000    0.0000    0.0000
  band No.  band energies     occupation 
      1     -19.6398      1.00000
      2     -17.3030      1.00000
      3     -14.4337      1.00000
      4     -10.7043      1.00000
      5     -10.4683      1.00000
      6     -10.2377      1.00000
      7      -9.8418      1.00000
      8      -8.7454      1.00000
      9      -7.2436      1.00000
     10      -4.7757      1.00000
     11      -0.4518      0.00000
     12      -0.1423      0.00000
     13       0.3341      0.00000
     14       0.4098      0.00000
     15       0.4545      0.00000
     16       0.5940      0.00000
     17       0.8142      0.00000
     18       0.9359      0.00000
     19       1.0429      0.00000
     20       1.1543      0.00000


--------------------------------------------------------------------------------------------------------


 soft charge-density along one line, spin component           1
         0         1         2         3         4         5         6         7         8         9
 total charge-density along one line
 
 soft charge-density along one line, spin component           2
         0         1         2         3         4         5         6         7         8         9
 total charge-density along one line
 
 pseudopotential strength for first ion, spin component:           1
 42.398   0.014  -0.073   0.007   0.021  -0.000   0.000   0.000
  0.014   0.009   0.000  -0.000  -0.000  -0.000   0.000   0.000
 -0.073   0.000   8.728  -0.002   0.004  -0.005   0.000  -0.000
  0.007  -0.000  -0.002   8.707   0.004   0.000  -0.004  -0.000
  0.021  -0.000   0.004   0.004   8.739  -0.000  -0.000  -0.006
 -0.000  -0.000  -0.005   0.000  -0.000   0.027  -0.000   0.000
  0.000   0.000   0.000  -0.004  -0.000  -0.000   0.027   0.000
  0.000   0.000  -0.000  -0.000  -0.006   0.000   0.000   0.027
 pseudopotential strength for first ion, spin component:           2
 42.398   0.014  -0.073   0.007   0.021  -0.000   0.000   0.000
  0.014   0.009   0.000  -0.000  -0.000  -0.000   0.000   0.000
 -0.073   0.000   8.728  -0.002   0.004  -0.005   0.000  -0.000
  0.007  -0.000  -0.002   8.707   0.004   0.000  -0.004  -0.000
  0.021  -0.000   0.004   0.004   8.739  -0.000  -0.000  -0.006
 -0.000  -0.000  -0.005   0.000  -0.000   0.027  -0.000   0.000
  0.000   0.000   0.000  -0.004  -0.000  -0.000   0.027   0.000
  0.000   0.000  -0.000  -0.000  -0.006   0.000   0.000   0.027
 total augmentation occupancy for first ion, spin component:           1
  1.848  -0.558   0.266  -0.040  -0.074   0.110  -0.016  -0.034
 -0.558   2.641   1.342  -0.192  -0.383  -0.924   0.143   0.280
  0.266   1.342   1.375   0.049  -0.082  -0.643   0.049  -0.050
 -0.040  -0.192   0.049   1.883  -0.098   0.051  -0.187  -0.082
 -0.074  -0.383  -0.082  -0.098   1.156  -0.050  -0.082  -0.786
  0.110  -0.924  -0.643   0.051  -0.050   0.460  -0.025   0.080
 -0.016   0.143   0.049  -0.187  -0.082  -0.025   0.131   0.073
 -0.034   0.280  -0.050  -0.082  -0.786   0.080   0.073   0.712
 total augmentation occupancy for first ion, spin component:           2
 -0.000   0.000  -0.000  -0.000   0.000  -0.000   0.000  -0.000
  0.000  -0.000  -0.000   0.000  -0.000   0.000  -0.000   0.000
 -0.000  -0.000  -0.000  -0.000   0.000   0.000  -0.000   0.000
 -0.000   0.000  -0.000  -0.000   0.000  -0.000  -0.000   0.000
  0.000  -0.000   0.000   0.000  -0.000   0.000   0.000   0.000
 -0.000   0.000   0.000  -0.000   0.000  -0.000   0.000  -0.000
  0.000  -0.000  -0.000  -0.000   0.000   0.000   0.000  -0.000
 -0.000   0.000   0.000   0.000   0.000  -0.000  -0.000  -0.000


------------------------ aborting loop because EDIFF is reached ----------------------------------------


 


 total charge     
 
# of ion       s       p       d       tot
------------------------------------------
    1        1.329   2.411   0.000   3.740
    2        0.842   1.758   0.000   2.600
    3        0.841   1.751   0.000   2.592
    4        0.650   0.044   0.000   0.693
    5        0.643   0.043   0.000   0.687
    6        0.646   0.044   0.000   0.690
    7        0.642   0.043   0.000   0.685
    8        0.642   0.043   0.000   0.685
    9        0.648   0.043   0.000   0.691
--------------------------------------------------
tot          6.883   6.181   0.000  13.064
 


 magnetization (x)
 
# of ion       s       p       d       tot
------------------------------------------
    1        0.000   0.000   0.000   0.000
    2       -0.000  -0.000   0.000  -0.000
    3        0.000  -0.000   0.000  -0.000
    4       -0.000  -0.000   0.000  -0.000
    5       -0.000   0.000   0.000  -0.000
    6       -0.000  -0.000   0.000  -0.000
    7       -0.000   0.000   0.000  -0.000
    8       -0.000  -0.000   0.000  -0.000
    9        0.000   0.000   0.000   0.000
--------------------------------------------------
tot         -0.000  -0.000   0.000  -0.000
 
    CHARGE:  cpu time    0.2872: real time    0.2882
    FORLOC:  cpu time    0.0487: real time    0.0488
    FORNL :  cpu time    1.6788: real time    1.6834
    STRESS:  cpu time    5.2927: real time    5.3066
    FORCOR:  cpu time    0.5034: real time    0.5047
    FORHAR:  cpu time    0.0886: real time    0.0888
    MIXING:  cpu time    0.0170: real time    0.0170
    OFIELD:  cpu time    0.0000: real time    0.0000

  FORCE on cell =-STRESS in cart. coord.  units (eV):
  Direction    XX          YY          ZZ          XY          YZ          ZX
  --------------------------------------------------------------------------------------
  Alpha Z     0.67333     0.67333     0.67333
  Ewald     448.60669   205.58637   -63.38657    81.08640   -11.34319    47.67718
  Hartree   560.28423   376.44429   175.96914    61.49898    -4.31245    31.14704
  E(xc)     -68.82488   -68.98736   -69.28322     0.05293    -0.03632     0.06610
  Local   -1228.94811  -805.94759  -349.40054  -141.22209    13.85683   -76.21773
  n-local    48.25302    47.77568    48.45325     0.06724    -0.01000    -0.04602
  augment   -16.32144   -16.98987   -18.34347     0.24172    -0.12002     0.26643
  Kinetic   256.62528   261.83903   274.80603    -1.72629     2.34073    -2.95658
  Fock        0.00000     0.00000     0.00000     0.00000     0.00000     0.00000
  -------------------------------------------------------------------------------------
  Total       0.34812     0.39390    -0.51204    -0.00111     0.37557    -0.06359
  in kB       0.23322     0.26389    -0.34303    -0.00074     0.25161    -0.04260
  external pressure =        0.05 kB  Pullay stress =        0.00 kB


 VOLUME and BASIS-vectors are now :
 -----------------------------------------------------------------------------
  energy-cutoff  :      400.00
  volume of cell :     2391.54
      direct lattice vectors                 reciprocal lattice vectors
    13.675000191  0.000000000  0.000000000     0.073126142  0.042219398  0.000000000
    -6.837500095 11.842897562  0.000000000     0.000000000  0.084438795  0.000000000
     0.000000000  0.000000000 14.767000198     0.000000000  0.000000000  0.067718561

  length of vectors
    13.675000191 13.675000191 14.767000198     0.084438795  0.084438795  0.067718561


 FORCES acting on ions
    electron-ion (+dipol)            ewald-force                    non-local-force                 convergence-correction
 -----------------------------------------------------------------------------------------------
   0.460E+02 -.157E+03 0.248E+02   -.488E+02 0.167E+03 -.256E+02   0.244E+01 -.942E+01 0.126E+01   -.438E-04 0.835E-03 -.385E-03
   -.897E+02 0.104E+02 -.147E+02   0.916E+02 -.116E+02 0.147E+02   -.208E+01 0.121E+01 -.468E+00   0.183E-03 -.169E-03 -.213E-03
   0.720E+02 0.564E+02 0.383E+01   -.732E+02 -.583E+02 -.413E+01   0.138E+01 0.200E+01 0.493E-01   0.374E-04 -.364E-03 -.153E-03
   -.379E+02 0.164E+02 0.509E+02   0.404E+02 -.180E+02 -.559E+02   -.218E+01 0.140E+01 0.504E+01   0.729E-04 -.723E-04 -.830E-04
   -.176E+02 0.460E+02 -.410E+02   0.177E+02 -.504E+02 0.447E+02   -.991E-01 0.432E+01 -.358E+01   0.445E-04 -.167E-03 0.164E-04
   -.431E+02 -.433E+02 -.251E+02   0.463E+02 0.478E+02 0.274E+02   -.296E+01 -.434E+01 -.221E+01   0.110E-03 0.494E-04 -.151E-04
   -.966E+01 0.539E+02 -.318E+02   0.120E+02 -.581E+02 0.349E+02   -.234E+01 0.408E+01 -.303E+01   0.793E-04 -.205E-03 0.445E-04
   0.605E+02 -.766E+01 -.240E+02   -.654E+02 0.911E+01 0.263E+02   0.489E+01 -.150E+01 -.234E+01   -.142E-03 -.224E-04 0.375E-04
   0.196E+02 0.259E+02 0.570E+02   -.205E+02 -.278E+02 -.624E+02   0.787E+00 0.160E+01 0.536E+01   0.191E-05 -.126E-03 -.798E-04
 -----------------------------------------------------------------------------------------------
   0.154E+00 0.648E+00 -.683E-01   -.142E-13 0.711E-14 0.711E-14   -.155E+00 -.647E+00 0.692E-01   0.344E-03 -.242E-03 -.830E-03
 
 
 POSITION                                       TOTAL-FORCE (eV/Angst)
 -----------------------------------------------------------------------------------
      7.14358      5.76483      9.60937        -0.344507      0.568245      0.415484
      8.79295      5.11777      9.91041        -0.143707     -0.020884     -0.452253
      6.07891      4.30597      9.62670         0.217390      0.123076     -0.252386
      9.22624      4.83649      8.94746         0.344314     -0.236412     -0.011229
      8.80342      4.27526     10.60734        -0.049810     -0.085769      0.129933
      9.35736      5.95057     10.33085         0.227685      0.117575      0.115766
      6.54108      3.50962     10.21869        -0.040333     -0.110086      0.065486
      5.12548      4.59977     10.07943        -0.067712     -0.046603      0.011176
      5.92020      3.98202      8.59354        -0.143321     -0.309143     -0.021978
 -----------------------------------------------------------------------------------
    total drift:                               -0.000136      0.000821      0.000076


--------------------------------------------------------------------------------------------------------



  FREE ENERGIE OF THE ION-ELECTRON SYSTEM (eV)
  ---------------------------------------------------
  free  energy   TOTEN  =       -44.03060909 eV

  energy  without entropy=      -44.03060909  energy(sigma->0) =      -44.03060909
 


--------------------------------------------------------------------------------------------------------


    POTLOK:  cpu time    0.7802: real time    0.7824


--------------------------------------------------------------------------------------------------------


 stress matrix after NEB project (eV)
      0.34812     -0.00111     -0.06359
     -0.00111      0.39390      0.37557
     -0.06359      0.37557     -0.51204
  FORCES: max atom, RMS     0.783719    0.392684
  FORCE total and by dimension    1.178051    0.568245
  Stress total and by dimension    0.910343    0.512038
 Quasi-Newton relaxation of ions (Broydens 2nd method)
  g(Force)  = 0.670E-01   g(Stress)= 0.000E+00

 Reset! Starting new Quasi-Newton update for ions 


--------------------------------------------------------------------------------------------------------


    WAVPRE:  cpu time    0.0752: real time    0.1183
    FEWALD:  cpu time    0.0016: real time    0.0016

 real space projection operators:
  total allocation   :       1419.75 KBytes
  max/ min on nodes  :        359.10        350.80

    ORTHCH:  cpu time    0.0487: real time    0.0489
     LOOP+:  cpu time   40.1422: real time   40.6105


--------------------------------------- Iteration      2(   1)  ---------------------------------------


    POTLOK:  cpu time    0.5291: real time    0.5418
    SETDIJ:  cpu time    0.2604: real time    0.2610
     EDDAV:  cpu time    0.4718: real time    0.4730
       DOS:  cpu time    0.0001: real time    0.0001
    CHARGE:  cpu time    0.2865: real time    0.2874
    MIXING:  cpu time    0.0306: real time    0.0307
    --------------------------------------------
      LOOP:  cpu time    1.5786: real time    1.5940

 eigenvalue-minimisations  :    96
 total energy-change (2. order) :-0.1965124E-01  (-0.3491396E+00)
 number of electron      20.0000000 magnetization       0.0009506
 augmentation part       -0.5033359 magnetization       0.0010035

 Broyden mixing:
  rms(total) = 0.46095E-01    rms(broyden)= 0.46041E-01
  rms(prec ) = 0.51905E-01
  weight for this iteration     100.00

 Free energy of the ion-electron system (eV)
  ---------------------------------------------------
  alpha Z        PSCENC =         0.67333139
  Ewald energy   TEWEN  =       584.29368324
  -Hartree energ DENC   =     -1108.06873232
  -exchange      EXHF   =         0.00000000
  -V(xc)+E(xc)   XCENC  =        57.59413701
  PAW double counting   =       277.58150250     -277.28956321
  entropy T*S    EENTRO =        -0.00000000
[...]



  FREE ENERGIE OF THE ION-ELECTRON SYSTEM (eV)
  ---------------------------------------------------
  free  energy   TOTEN  =       -44.15676205 eV

  energy  without entropy=      -44.15676205  energy(sigma->0) =      -44.15676205
 
 d Force =-0.1075433E-03[-0.121E-03,-0.945E-04]  d Energy =-0.1047675E-03-0.278E-05
 d Force = 0.1912129E-01[ 0.202E-01, 0.181E-01]  d Ewald  = 0.1912118E-01 0.111E-06


--------------------------------------------------------------------------------------------------------


    POTLOK:  cpu time    0.7901: real time    0.7920


--------------------------------------------------------------------------------------------------------


 stress matrix after NEB project (eV)
     -0.65509     -0.00113     -0.00678
     -0.00113     -0.65113     -0.00426
     -0.00678     -0.00426     -0.64951
  FORCES: max atom, RMS     0.011237    0.007871
  FORCE total and by dimension    0.023614    0.010468
  Stress total and by dimension    1.129205    0.655088
 Quasi-Newton relaxation of ions (Broydens 2nd method)
  g(Force)  = 0.269E-04   g(Stress)= 0.000E+00

 retain information from N=  2 steps
 eigenvalues of (default step * inverse Hessian matrix)
  average eigenvalue of G=   1.3415
 eigenvalue spectrum of G is  1.3415  1.3415


--------------------------------------------------------------------------------------------------------


    WAVPRE:  cpu time    0.0812: real time    0.0947
    FEWALD:  cpu time    0.0023: real time    0.0023

 real space projection operators:
  total allocation   :       1418.84 KBytes
  max/ min on nodes  :        360.30        349.57

    ORTHCH:  cpu time    0.0462: real time    0.0464
     LOOP+:  cpu time   13.4296: real time   13.5040


--------------------------------------- Iteration     74(   1)  ---------------------------------------


    POTLOK:  cpu time    0.5291: real time    0.5516
    SETDIJ:  cpu time    0.2591: real time    0.2601
     EDDAV:  cpu time    0.5048: real time    0.5065
       DOS:  cpu time    0.0001: real time    0.0001
    CHARGE:  cpu time    0.2842: real time    0.2852
    MIXING:  cpu time    0.0321: real time    0.0322
    --------------------------------------------
      LOOP:  cpu time    1.6096: real time    1.6358

 eigenvalue-minimisations  :   104
 total energy-change (2. order) :-0.4594417E-04  (-0.2598993E-03)
 number of electron      20.0000000 magnetization       0.0000000
 augmentation part       -0.5059026 magnetization      -0.0000000

 Broyden mixing:
  rms(total) = 0.13685E-02    rms(broyden)= 0.13666E-02
  rms(prec ) = 0.14670E-02
  weight for this iteration     100.00

 Free energy of the ion-electron system (eV)
  ---------------------------------------------------
  alpha Z        PSCENC =         0.67333139
  Ewald energy   TEWEN  =       591.37649612
  -Hartree energ DENC   =     -1113.39632404
  -exchange      EXHF   =         0.00000000
  -V(xc)+E(xc)   XCENC  =        57.60382757
  PAW double counting   =       274.85072687     -274.53764916
  entropy T*S    EENTRO =        -0.00000000
  eigenvalues    EBANDS =      -226.67186303
  atomic energy  EATOM  =       645.94464650
  Solvation  Ediel_sol  =         0.00000000
  ---------------------------------------------------
  free energy    TOTEN  =       -44.15680778 eV

  energy without entropy =      -44.15680778  energy(sigma->0) =      -44.15680778


--------------------------------------------------------------------------------------------------------




--------------------------------------- Iteration     74(   2)  ---------------------------------------


    POTLOK:  cpu time    0.5345: real time    0.5362
    SETDIJ:  cpu time    0.2627: real time    0.2635
     EDDAV:  cpu time    0.4765: real time    0.4776
       DOS:  cpu time    0.0001: real time    0.0001
    --------------------------------------------
      LOOP:  cpu time    1.2738: real time    1.2774

 eigenvalue-minimisations  :    96
 total energy-change (2. order) :-0.3333493E-05  (-0.5402669E-05)
 number of electron      20.0000000 magnetization       0.0000000
 augmentation part       -0.5059026 magnetization      -0.0000000

 Free energy of the ion-electron system (eV)
  ---------------------------------------------------
  alpha Z        PSCENC =         0.67333139
  Ewald energy   TEWEN  =       591.37649612
  -Hartree energ DENC   =     -1113.39488075
  -exchange      EXHF   =         0.00000000
  -V(xc)+E(xc)   XCENC  =        57.60370339
  PAW double counting   =       274.84665496     -274.53355929
  entropy T*S    EENTRO =        -0.00000000
  eigenvalues    EBANDS =      -226.67320344
  atomic energy  EATOM  =       645.94464650
  Solvation  Ediel_sol  =         0.00000000
  ---------------------------------------------------
  free energy    TOTEN  =       -44.15681112 eV

  energy without entropy =      -44.15681112  energy(sigma->0) =      -44.15681112


--------------------------------------------------------------------------------------------------------




 average (electrostatic) potential at core
  the test charge radii are     0.9698  0.6991  0.5201
  (the norm of the test charge is              1.0000)
       1 -95.6020       2 -58.8972       3 -58.8961       4 -41.8742       5 -41.8813
       6 -42.0500       7 -41.8953       8 -42.0483       9 -41.8616
 
 
 
 E-fermi :  -4.6585     XC(G=0):  -0.5925     alpha+bet : -0.2388


 spin component 1

 k-point     1 :       0.0000    0.0000    0.0000
  band No.  band energies     occupation 
      1     -19.6394      1.00000
      2     -17.1990      1.00000
      3     -14.5129      1.00000
      4     -10.5808      1.00000
      5     -10.4892      1.00000
      6     -10.2145      1.00000
      7      -9.6742      1.00000
      8      -8.6746      1.00000
      9      -7.4440      1.00000
     10      -4.9080      1.00000
     11      -0.4851      0.00000
     12      -0.2581      0.00000
     13       0.2961      0.00000
     14       0.3706      0.00000
     15       0.5308      0.00000
     16       0.5812      0.00000
     17       0.7954      0.00000
     18       0.8632      0.00000
     19       0.9860      0.00000
     20       1.1607      0.00000

 spin component 2

 k-point     1 :       0.0000    0.0000    0.0000
  band No.  band energies     occupation 
      1     -19.6394      1.00000
      2     -17.1990      1.00000
      3     -14.5129      1.00000
      4     -10.5808      1.00000
      5     -10.4892      1.00000
      6     -10.2145      1.00000
      7      -9.6742      1.00000
      8      -8.6746      1.00000
      9      -7.4440      1.00000
     10      -4.9080      1.00000
     11      -0.4851      0.00000
     12      -0.2581      0.00000
     13       0.2961      0.00000
     14       0.3706      0.00000
     15       0.5308      0.00000
     16       0.5813      0.00000
     17       0.7955      0.00000
     18       0.8632      0.00000
     19       0.9860      0.00000
     20       1.1608      0.00000


--------------------------------------------------------------------------------------------------------


 soft charge-density along one line, spin component           1
         0         1         2         3         4         5         6         7         8         9
 total charge-density along one line
 
 soft charge-density along one line, spin component           2
         0         1         2         3         4         5         6         7         8         9
 total charge-density along one line
 
 pseudopotential strength for first ion, spin component:           1
 42.427   0.014  -0.066  -0.016   0.022  -0.000  -0.000   0.000
  0.014   0.009   0.000   0.000  -0.000  -0.000  -0.000   0.000
 -0.066   0.000   8.731   0.005   0.003  -0.005  -0.000  -0.000
 -0.016   0.000   0.005   8.711   0.001  -0.000  -0.004  -0.000
  0.022  -0.000   0.003   0.001   8.741  -0.000  -0.000  -0.006
 -0.000  -0.000  -0.005  -0.000  -0.000   0.027   0.000   0.000
 -0.000  -0.000  -0.000  -0.004  -0.000   0.000   0.027   0.000
  0.000   0.000  -0.000  -0.000  -0.006   0.000   0.000   0.027
 pseudopotential strength for first ion, spin component:           2
 42.427   0.014  -0.066  -0.016   0.022  -0.000  -0.000   0.000
  0.014   0.009   0.000   0.000  -0.000  -0.000  -0.000   0.000
 -0.066   0.000   8.731   0.005   0.003  -0.005  -0.000  -0.000
 -0.016   0.000   0.005   8.711   0.001  -0.000  -0.004  -0.000
  0.022  -0.000   0.003   0.001   8.741  -0.000  -0.000  -0.006
 -0.000  -0.000  -0.005  -0.000  -0.000   0.027   0.000   0.000
 -0.000  -0.000  -0.000  -0.004  -0.000   0.000   0.027   0.000
  0.000   0.000  -0.000  -0.000  -0.006   0.000   0.000   0.027
 total augmentation occupancy for first ion, spin component:           1
  1.855  -0.527   0.261   0.063  -0.085   0.112   0.025  -0.037
 -0.527   2.600   1.317   0.312  -0.430  -0.936  -0.219   0.306
  0.261   1.317   1.381  -0.128  -0.069  -0.639  -0.116  -0.031
  0.063   0.312  -0.128   1.864  -0.029  -0.116  -0.197  -0.018
 -0.085  -0.430  -0.069  -0.029   1.142  -0.031  -0.018  -0.766
  0.112  -0.936  -0.639  -0.116  -0.031   0.467   0.087   0.059
  0.025  -0.219  -0.116  -0.197  -0.018   0.087   0.131   0.024
 -0.037   0.306  -0.031  -0.018  -0.766   0.059   0.024   0.667
 total augmentation occupancy for first ion, spin component:           2
  0.000   0.000   0.000  -0.000  -0.000  -0.000  -0.000  -0.000
  0.000   0.000   0.000  -0.000  -0.000  -0.000  -0.000   0.000
  0.000   0.000  -0.000  -0.000  -0.000  -0.000  -0.000  -0.000
 -0.000  -0.000  -0.000   0.000   0.000   0.000   0.000   0.000
 -0.000  -0.000  -0.000   0.000  -0.000   0.000   0.000   0.000
 -0.000  -0.000  -0.000   0.000   0.000   0.000   0.000  -0.000
 -0.000  -0.000  -0.000   0.000   0.000   0.000  -0.000  -0.000
 -0.000   0.000  -0.000   0.000   0.000  -0.000  -0.000  -0.000


------------------------ aborting loop because EDIFF is reached ----------------------------------------


 


 total charge     
 
# of ion       s       p       d       tot
------------------------------------------
    1        1.331   2.396   0.000   3.728
    2        0.839   1.744   0.000   2.583
    3        0.839   1.744   0.000   2.583
    4        0.642   0.042   0.000   0.684
    5        0.642   0.042   0.000   0.684
    6        0.639   0.042   0.000   0.682
    7        0.641   0.042   0.000   0.683
    8        0.639   0.042   0.000   0.682
    9        0.642   0.042   0.000   0.684
--------------------------------------------------
tot          6.855   6.138   0.000  12.992
 


 magnetization (x)
 
# of ion       s       p       d       tot
------------------------------------------
    1        0.000   0.000   0.000   0.000
    2        0.000   0.000   0.000   0.000
    3        0.000   0.000   0.000   0.000
    4       -0.000   0.000   0.000  -0.000
    5       -0.000   0.000   0.000  -0.000
    6       -0.000   0.000   0.000  -0.000
    7       -0.000   0.000   0.000  -0.000
    8        0.000   0.000   0.000   0.000
    9       -0.000  -0.000   0.000  -0.000
--------------------------------------------------
tot         -0.000   0.000   0.000   0.000
 
    CHARGE:  cpu time    0.2941: real time    0.2948
    FORLOC:  cpu time    0.0457: real time    0.0458
    FORNL :  cpu time    1.7358: real time    1.7403
    STRESS:  cpu time    5.3108: real time    5.3249
    FORCOR:  cpu time    0.5013: real time    0.5025
    FORHAR:  cpu time    0.0843: real time    0.0845
    MIXING:  cpu time    0.0100: real time    0.0100
    OFIELD:  cpu time    0.0000: real time    0.0000

  FORCE on cell =-STRESS in cart. coord.  units (eV):
  Direction    XX          YY          ZZ          XY          YZ          ZX
  --------------------------------------------------------------------------------------
  Alpha Z     0.67333     0.67333     0.67333
  Ewald     441.22326   211.58106   -61.42796    72.82291    44.00224    23.81034
  Hartree   554.68069   380.39012   178.32273    55.88311    25.88859    17.53883
  E(xc)     -68.68897   -68.82427   -69.13456     0.03744     0.08386     0.01734
  Local   -1215.37049  -816.44348  -353.78518  -127.33569   -66.58661   -40.71710
  n-local    47.98592    48.16825    48.66504    -0.04874    -0.15372    -0.01373
  augment   -16.34237   -17.03818   -18.32763     0.20230     0.34068     0.08452
  Kinetic   255.18082   260.83713   274.36626    -1.56202    -3.57495    -0.72740
  Fock        0.00000     0.00000     0.00000     0.00000     0.00000     0.00000
  -------------------------------------------------------------------------------------
  Total      -0.65781    -0.65605    -0.64797    -0.00068     0.00008    -0.00719
  in kB      -0.44069    -0.43951    -0.43410    -0.00045     0.00005    -0.00482
  external pressure =       -0.44 kB  Pullay stress =        0.00 kB


 VOLUME and BASIS-vectors are now :
 -----------------------------------------------------------------------------
  energy-cutoff  :      400.00
  volume of cell :     2391.54
      direct lattice vectors                 reciprocal lattice vectors
    13.675000191  0.000000000  0.000000000     0.073126142  0.042219398  0.000000000
    -6.837500095 11.842897562  0.000000000     0.000000000  0.084438795  0.000000000
     0.000000000  0.000000000 14.767000198     0.000000000  0.000000000  0.067718561

  length of vectors
    13.675000191 13.675000191 14.767000198     0.084438795  0.084438795  0.067718561


 FORCES acting on ions
    electron-ion (+dipol)            ewald-force                    non-local-force                 convergence-correction
 -----------------------------------------------------------------------------------------------
   0.529E+02 -.162E+03 -.382E+02   -.558E+02 0.171E+03 0.405E+02   0.290E+01 -.886E+01 -.220E+01   -.204E-03 0.324E-02 -.103E-01
   -.903E+02 0.790E+01 0.574E+00   0.920E+02 -.911E+01 -.853E+00   -.171E+01 0.121E+01 0.277E+00   0.216E-02 0.675E-03 0.507E-03
   0.692E+02 0.565E+02 0.158E+02   -.699E+02 -.584E+02 -.163E+02   0.683E+00 0.192E+01 0.557E+00   -.203E-02 -.223E-03 -.453E-02
   -.269E+02 0.200E+02 0.553E+02   0.280E+02 -.219E+02 -.604E+02   -.105E+01 0.183E+01 0.511E+01   0.675E-03 -.906E-04 -.508E-04
   -.246E+02 0.442E+02 -.400E+02   0.254E+02 -.483E+02 0.437E+02   -.799E+00 0.406E+01 -.366E+01   -.139E-03 0.216E-03 0.137E-04
   -.492E+02 -.417E+02 -.121E+02   0.528E+02 0.459E+02 0.132E+02   -.358E+01 -.411E+01 -.115E+01   -.183E-04 -.244E-03 0.245E-03
   -.328E-01 0.536E+02 -.355E+02   0.124E+01 -.577E+02 0.390E+02   -.122E+01 0.410E+01 -.349E+01   0.557E-03 0.117E-03 -.124E-02
   0.651E+02 -.591E+01 -.475E+01   -.705E+02 0.719E+01 0.539E+01   0.538E+01 -.128E+01 -.651E+00   0.350E-03 -.298E-03 0.793E-04
   0.399E+01 0.268E+02 0.590E+02   -.321E+01 -.284E+02 -.642E+02   -.774E+00 0.166E+01 0.521E+01   -.120E-02 0.453E-03 -.399E-03
 -----------------------------------------------------------------------------------------------
   0.157E+00 -.528E+00 0.112E-01   0.400E-14 0.249E-13 0.000E+00   -.158E+00 0.524E+00 0.338E-02   0.148E-03 0.385E-02 -.157E-01
 
 
 POSITION                                       TOTAL-FORCE (eV/Angst)
 -----------------------------------------------------------------------------------
      7.08408      5.80428     10.02667         0.000408     -0.002811      0.007274
      8.75184      5.12494      9.89233        -0.002260      0.000346     -0.000903
      6.12249      4.32259      9.65075         0.001957      0.001021      0.005005
      8.95794      4.75793      8.87596        -0.004663      0.001555     -0.002285
      8.90826      4.31298     10.61806         0.004590     -0.001294     -0.001849
      9.45078      5.94080     10.12104         0.001025      0.001582     -0.002835
      6.36952      3.50504     10.34421        -0.007503     -0.000390      0.004081
      5.06369      4.58438      9.78041        -0.002477      0.002342     -0.008298
      6.28062      3.98939      8.61436         0.008923     -0.002352     -0.000190
 -----------------------------------------------------------------------------------
    total drift:                               -0.000335      0.000268     -0.001102


--------------------------------------------------------------------------------------------------------



  FREE ENERGIE OF THE ION-ELECTRON SYSTEM (eV)
  ---------------------------------------------------
  free  energy   TOTEN  =       -44.15681112 eV

  energy  without entropy=      -44.15681112  energy(sigma->0) =      -44.15681112
 
 d Force = 0.4485710E-04[ 0.417E-04, 0.480E-04]  d Energy = 0.4906587E-04-0.421E-05
 d Force =-0.4842547E-02[-0.467E-02,-0.501E-02]  d Ewald  =-0.4842544E-02-0.308E-08


--------------------------------------------------------------------------------------------------------


    POTLOK:  cpu time    0.7962: real time    0.7981


--------------------------------------------------------------------------------------------------------


 stress matrix after NEB project (eV)
     -0.65781     -0.00068     -0.00719
     -0.00068     -0.65605      0.00008
     -0.00719      0.00008     -0.64797
  FORCES: max atom, RMS     0.009229    0.006690
  FORCE total and by dimension    0.020071    0.008923
  Stress total and by dimension    1.132739    0.657814
 Quasi-Newton relaxation of ions (Broydens 2nd method)
  g(Force)  = 0.194E-04   g(Stress)= 0.000E+00

 retain information from N=  2 steps
 eigenvalues of (default step * inverse Hessian matrix)
  average eigenvalue of G=   1.3061
 eigenvalue spectrum of G is  1.3061  1.3061


--------------------------------------------------------------------------------------------------------


  
 reached required accuracy - stopping structural energy minimisation
     LOOP+:  cpu time   11.9291: real time   12.0256
    4ORBIT:  cpu time    0.0000: real time    0.0000
 


 total charge     
 
# of ion       s       p       d       tot
------------------------------------------
    1        1.331   2.396   0.000   3.728
    2        0.839   1.744   0.000   2.583
    3        0.839   1.744   0.000   2.583
    4        0.642   0.042   0.000   0.684
    5        0.642   0.042   0.000   0.684
    6        0.639   0.042   0.000   0.682
    7        0.641   0.042   0.000   0.683
    8        0.639   0.042   0.000   0.682
    9        0.642   0.042   0.000   0.684
--------------------------------------------------
tot          6.855   6.138   0.000  12.992
 


 magnetization (x)
 
# of ion       s       p       d       tot
------------------------------------------
    1        0.000   0.000   0.000   0.000
    2        0.000   0.000   0.000   0.000
    3        0.000   0.000   0.000   0.000
    4       -0.000   0.000   0.000  -0.000
    5       -0.000   0.000   0.000  -0.000
    6       -0.000   0.000   0.000  -0.000
    7       -0.000   0.000   0.000  -0.000
    8        0.000   0.000   0.000   0.000
    9       -0.000  -0.000   0.000  -0.000
--------------------------------------------------
tot         -0.000   0.000   0.000   0.000
 

 total amount of memory used by VASP MPI-rank0   149564. kBytes
=======================================================================

   base      :      30000. kBytes
   nonlr-proj:       1043. kBytes
   fftplans  :      63994. kBytes
   grid      :      52770. kBytes
   one-center:         18. kBytes
   wavefun   :       1739. kBytes
 
  
  
 General timing and accounting informations for this job:
 ========================================================
  
                  Total CPU time used (sec):     1192.925
                            User time (sec):     1109.930
                          System time (sec):       82.995
                         Elapsed time (sec):     1206.977
  
                   Maximum memory used (kb):      264096.
                   Average memory used (kb):           0.
  
                          Minor page faults:       908951
                          Major page faults:            2
                 Voluntary context switches:         3633
