 vasp.5.4.4.18Apr17-6-g9f103f2a35 (build Dec 31 2018 11:41:54) complex          
  
 executed on             LinuxIFC date 2022.07.06  12:17:41
 running on   16 total cores
 distrk:  each k-point on   16 cores,    1 groups
 distr:  one band on NCORES_PER_BAND=   4 cores,    4 groups


--------------------------------------------------------------------------------------------------------


 INCAR:
 POTCAR:   PAW_PBE O 08Apr2002                    
 POTCAR:   PAW_PBE Si 05Jan2001                   
 POTCAR:   PAW_PBE Al 04Jan2001                   
 POTCAR:   PAW_PBE Ag 06Sep2000                   
 POTCAR:    PAW_PBE S 17Jan2003                   
 POTCAR:   PAW_PBE H 15Jun2001                    
 POTCAR:   PAW_PBE O 08Apr2002                    
   VRHFIN =O: s2p4                                                              
   LEXCH  = PE                                                                  
   EATOM  =   432.3788 eV,   31.7789 Ry                                         
                                                                                
   TITEL  = PAW_PBE O 08Apr2002                                                 
   LULTRA =        F    use ultrasoft PP ?                                      
   IUNSCR =        0    unscreen: 0-lin 1-nonlin 2-no                           
   RPACOR =     .000    partial core radius                                     
   POMASS =   16.000; ZVAL   =    6.000    mass and valenz                      
   RCORE  =    1.520    outmost cutoff radius                                   
   RWIGS  =    1.550; RWIGS  =     .820    wigner-seitz radius (au A)           
   ENMAX  =  400.000; ENMIN  =  300.000 eV                                      
   ICORE  =        2    local potential                                         
   LCOR   =        T    correct aug charges                                     
   LPAW   =        T    paw PP                                                  
   EAUG   =  605.392                                                            
   DEXC   =     .000                                                            
   RMAX   =    2.264    core radius for proj-oper                               
   RAUG   =    1.300    factor for augmentation sphere                          
   RDEP   =    1.550    radius for radial grids                                 
   QCUT   =   -5.520; QGAM   =   11.041    optimization parameters              
                                                                                
   Description                                                                  
     l     E      TYP  RCUT    TYP  RCUT                                        
     0   .000     23  1.200                                                     
     0  -.700     23  1.200                                                     
     1   .000     23  1.520                                                     
     1   .600     23  1.520                                                     
     2   .000      7  1.500                                                     
  local pseudopotential read in
  atomic valenz-charges read in
  non local Contribution for L=           0  read in
    real space projection operators read in
  non local Contribution for L=           0  read in
    real space projection operators read in
  non local Contribution for L=           1  read in
    real space projection operators read in
  non local Contribution for L=           1  read in
    real space projection operators read in
    PAW grid and wavefunctions read in
 
   number of l-projection  operators is LMAX  =           4
   number of lm-projection operators is LMMAX =           8
 
 POTCAR:   PAW_PBE Si 05Jan2001                   
   VRHFIN =Si: s2p2                                                             
   LEXCH  = PE                                                                  
   EATOM  =   103.0669 eV,    7.5752 Ry                                         
                                                                                
   TITEL  = PAW_PBE Si 05Jan2001                                                
   LULTRA =        F    use ultrasoft PP ?                                      
   IUNSCR =        1    unscreen: 0-lin 1-nonlin 2-no                           
   RPACOR =    1.500    partial core radius                                     
   POMASS =   28.085; ZVAL   =    4.000    mass and valenz                      
   RCORE  =    1.900    outmost cutoff radius                                   
   RWIGS  =    2.480; RWIGS  =    1.312    wigner-seitz radius (au A)           
   ENMAX  =  245.345; ENMIN  =  184.009 eV                                      
   ICORE  =        2    local potential                                         
   LCOR   =        T    correct aug charges                                     
   LPAW   =        T    paw PP                                                  
   EAUG   =  322.069                                                            
   DEXC   =    -.007                                                            
   RMAX   =    2.944    core radius for proj-oper                               
   RAUG   =    1.300    factor for augmentation sphere                          
   RDEP   =    1.993    radius for radial grids                                 
   QCUT   =   -4.246; QGAM   =    8.493    optimization parameters              
                                                                                
   Description                                                                  
     l     E      TYP  RCUT    TYP  RCUT                                        
     0   .000     23  1.900                                                     
     0   .000     23  1.900                                                     
     1   .000     23  1.900                                                     
     1   .000     23  1.900                                                     
     2   .000      7  1.900                                                     
  local pseudopotential read in
  partial core-charges read in
  atomic valenz-charges read in
  non local Contribution for L=           0  read in
    real space projection operators read in
  non local Contribution for L=           0  read in
    real space projection operators read in
  non local Contribution for L=           1  read in
    real space projection operators read in
  non local Contribution for L=           1  read in
    real space projection operators read in
    PAW grid and wavefunctions read in
 
   number of l-projection  operators is LMAX  =           4
   number of lm-projection operators is LMMAX =           8
 
 POTCAR:   PAW_PBE Al 04Jan2001                   
   VRHFIN =Al: s2p1                                                             
   LEXCH  = PE                                                                  
   EATOM  =    53.5387 eV,    3.9350 Ry                                         
                                                                                
   TITEL  = PAW_PBE Al 04Jan2001                                                
   LULTRA =        F    use ultrasoft PP ?                                      
   IUNSCR =        1    unscreen: 0-lin 1-nonlin 2-no                           
   RPACOR =    1.500    partial core radius                                     
   POMASS =   26.982; ZVAL   =    3.000    mass and valenz                      
   RCORE  =    1.900    outmost cutoff radius                                   
   RWIGS  =    2.650; RWIGS  =    1.402    wigner-seitz radius (au A)           
   ENMAX  =  240.300; ENMIN  =  180.225 eV                                      
   ICORE  =        2    local potential                                         
   LCOR   =        T    correct aug charges                                     
   LPAW   =        T    paw PP                                                  
   EAUG   =  291.052                                                            
   DEXC   =    -.041                                                            
   RMAX   =    2.974    core radius for proj-oper                               
   RAUG   =    1.300    factor for augmentation sphere                          
   RDEP   =    1.966    radius for radial grids                                 
   QCUT   =   -4.203; QGAM   =    8.405    optimization parameters              
                                                                                
   Description                                                                  
     l     E      TYP  RCUT    TYP  RCUT                                        
     0   .000     23  1.900                                                     
     0   .000     23  1.900                                                     
     1   .000     23  1.900                                                     
     1  1.000     23  1.900                                                     
     2   .000      7  1.900                                                     
  local pseudopotential read in
  partial core-charges read in
  atomic valenz-charges read in
  non local Contribution for L=           0  read in
    real space projection operators read in
  non local Contribution for L=           0  read in
    real space projection operators read in
  non local Contribution for L=           1  read in
    real space projection operators read in
  non local Contribution for L=           1  read in
    real space projection operators read in
    PAW grid and wavefunctions read in
 
   number of l-projection  operators is LMAX  =           4
   number of lm-projection operators is LMMAX =           8
 
 POTCAR:   PAW_PBE Ag 06Sep2000                   
   VRHFIN =Ag : s1 d10                                                          
   LEXCH  = PE                                                                  
   EATOM  =  1037.4134 eV,   76.2477 Ry                                         
                                                                                
   TITEL  = PAW_PBE Ag 06Sep2000                                                
   LULTRA =        F    use ultrasoft PP ?                                      
   IUNSCR =        1    unscreen: 0-lin 1-nonlin 2-no                           
   RPACOR =    2.000    partial core radius                                     
   POMASS =  107.868; ZVAL   =   11.000    mass and valenz                      
   RCORE  =    2.400    outmost cutoff radius                                   
   RWIGS  =    2.840; RWIGS  =    1.503    wigner-seitz radius (au A)           
   ENMAX  =  249.846; ENMIN  =  187.385 eV                                      
   RCLOC  =    1.962    cutoff for local pot                                    
   LCOR   =        T    correct aug charges                                     
   LPAW   =        T    paw PP                                                  
   EAUG   =  412.496                                                            
   DEXC   =    -.047                                                            
   RMAX   =    2.917    core radius for proj-oper                               
   RAUG   =    1.300    factor for augmentation sphere                          
   RDEP   =    2.416    radius for radial grids                                 
   QCUT   =   -4.285; QGAM   =    8.570    optimization parameters              
                                                                                
   Description                                                                  
     l     E      TYP  RCUT    TYP  RCUT                                        
     2   .000     23  2.400                                                     
     2   .000     23  2.400                                                     
     0   .000     23  2.400                                                     
     0   .000     23  2.400                                                     
     1  -.200     23  2.400                                                     
     1  1.500     23  2.400                                                     
     3   .000      7   .000                                                     
  local pseudopotential read in
  partial core-charges read in
  atomic valenz-charges read in
  non local Contribution for L=           2  read in
    real space projection operators read in
  non local Contribution for L=           2  read in
    real space projection operators read in
  non local Contribution for L=           0  read in
    real space projection operators read in
  non local Contribution for L=           0  read in
    real space projection operators read in
  non local Contribution for L=           1  read in
    real space projection operators read in
  non local Contribution for L=           1  read in
    real space projection operators read in
    PAW grid and wavefunctions read in
 
   number of l-projection  operators is LMAX  =           6
   number of lm-projection operators is LMMAX =          18
 
 POTCAR:    PAW_PBE S 17Jan2003                   
   VRHFIN =S : s2p4                                                             
   LEXCH  = PE                                                                  
   EATOM  =   276.8230 eV,   20.3459 Ry                                         
                                                                                
   TITEL  = PAW_PBE S 17Jan2003                                                 
   LULTRA =        F    use ultrasoft PP ?                                      
   IUNSCR =        1    unscreen: 0-lin 1-nonlin 2-no                           
   RPACOR =    1.500    partial core radius                                     
   POMASS =   32.066; ZVAL   =    6.000    mass and valenz                      
   RCORE  =    1.900    outmost cutoff radius                                   
   RWIGS  =    2.200; RWIGS  =    1.164    wigner-seitz radius (au A)           
   ENMAX  =  280.000; ENMIN  =  194.016 eV                                      
   ICORE  =        2    local potential                                         
   LCOR   =        T    correct aug charges                                     
   LPAW   =        T    paw PP                                                  
   EAUG   =  335.092                                                            
   DEXC   =     .000                                                            
   RMAX   =    2.867    core radius for proj-oper                               
   RAUG   =    1.300    factor for augmentation sphere                          
   RDEP   =    1.954    radius for radial grids                                 
   QCUT   =   -4.360; QGAM   =    8.721    optimization parameters              
                                                                                
   Description                                                                  
     l     E      TYP  RCUT    TYP  RCUT                                        
     0   .000     23  1.900                                                     
     0   .000     23  1.900                                                     
     1   .000     23  1.900                                                     
     1   .000     23  1.900                                                     
     2   .000     23  1.900                                                     
  local pseudopotential read in
  partial core-charges read in
  atomic valenz-charges read in
  non local Contribution for L=           0  read in
    real space projection operators read in
  non local Contribution for L=           0  read in
    real space projection operators read in
  non local Contribution for L=           1  read in
    real space projection operators read in
  non local Contribution for L=           1  read in
    real space projection operators read in
    PAW grid and wavefunctions read in
 
   number of l-projection  operators is LMAX  =           4
   number of lm-projection operators is LMMAX =           8
 
 POTCAR:   PAW_PBE H 15Jun2001                    
   VRHFIN =H: ultrasoft test                                                    
   LEXCH  = PE                                                                  
   EATOM  =    12.4884 eV,     .9179 Ry                                         
                                                                                
   TITEL  = PAW_PBE H 15Jun2001                                                 
   LULTRA =        F    use ultrasoft PP ?                                      
   IUNSCR =        0    unscreen: 0-lin 1-nonlin 2-no                           
   RPACOR =     .000    partial core radius                                     
   POMASS =    1.000; ZVAL   =    1.000    mass and valenz                      
   RCORE  =    1.100    outmost cutoff radius                                   
   RWIGS  =     .700; RWIGS  =     .370    wigner-seitz radius (au A)           
   ENMAX  =  250.000; ENMIN  =  200.000 eV                                      
   RCLOC  =     .701    cutoff for local pot                                    
   LCOR   =        T    correct aug charges                                     
   LPAW   =        T    paw PP                                                  
   EAUG   =  400.000                                                            
   RMAX   =    2.174    core radius for proj-oper                               
   RAUG   =    1.200    factor for augmentation sphere                          
   RDEP   =    1.112    radius for radial grids                                 
   QCUT   =   -5.749; QGAM   =   11.498    optimization parameters              
                                                                                
   Description                                                                  
     l     E      TYP  RCUT    TYP  RCUT                                        
     0   .000     23  1.100                                                     
     0   .500     23  1.100                                                     
     1  -.300     23  1.100                                                     
  local pseudopotential read in
  atomic valenz-charges read in
  non local Contribution for L=           0  read in
    real space projection operators read in
  non local Contribution for L=           0  read in
    real space projection operators read in
  non local Contribution for L=           1  read in
    real space projection operators read in
    PAW grid and wavefunctions read in
 
   number of l-projection  operators is LMAX  =           3
   number of lm-projection operators is LMMAX =           5
 
 Optimization of the real space projectors (new method)

 maximal supplied QI-value         = 24.76
 optimisation between [QCUT,QGAM] = [ 10.15, 20.30] = [ 28.85,115.39] Ry 
 Optimized for a Real-space Cutoff    1.51 Angstroem

   l    n(q)    QCUT    max X(q) W(low)/X(q) W(high)/X(q)  e(spline) 
   0      9    10.150     4.192    0.32E-04    0.13E-04    0.13E-06
   0      9    10.150     8.473    0.18E-03    0.20E-03    0.43E-06
   1      9    10.150     2.474    0.32E-04    0.33E-04    0.64E-07
   1      9    10.150     3.912    0.13E-03    0.16E-03    0.33E-06
 Optimization of the real space projectors (new method)

 maximal supplied QI-value         = 19.84
 optimisation between [QCUT,QGAM] = [ 10.12, 20.44] = [ 28.68,116.96] Ry 
 Optimized for a Real-space Cutoff    1.38 Angstroem

   l    n(q)    QCUT    max X(q) W(low)/X(q) W(high)/X(q)  e(spline) 
   0      8    10.119     8.708    0.16E-04    0.67E-05    0.60E-08
   0      8    10.119   106.241    0.56E-04    0.11E-03    0.54E-07
   1      8    10.119     5.901    0.16E-04    0.16E-05    0.22E-07
   1      8    10.119    73.241    0.22E-03    0.17E-03    0.18E-06
 Optimization of the real space projectors (new method)

 maximal supplied QI-value         = 19.84
 optimisation between [QCUT,QGAM] = [ 10.12, 20.44] = [ 28.68,116.96] Ry 
 Optimized for a Real-space Cutoff    1.26 Angstroem

   l    n(q)    QCUT    max X(q) W(low)/X(q) W(high)/X(q)  e(spline) 
   0      8    10.119    13.410    0.28E-04    0.17E-04    0.51E-08
   0      8    10.119   140.052    0.10E-03    0.16E-03    0.42E-07
   1      7    10.119     9.624    0.38E-04    0.42E-05    0.15E-07
   1      7    10.119    53.353    0.23E-03    0.17E-03    0.13E-06
 Optimization of the real space projectors (new method)

 maximal supplied QI-value         = 15.68
 optimisation between [QCUT,QGAM] = [ 10.20, 20.39] = [ 29.11,116.42] Ry 
 Optimized for a Real-space Cutoff    1.51 Angstroem

   l    n(q)    QCUT    max X(q) W(low)/X(q) W(high)/X(q)  e(spline) 
   2      8    10.195     3.831    0.11E-04    0.20E-04    0.48E-07
   2      8    10.195    20.184    0.23E-03    0.42E-03    0.20E-06
   0      9    10.195    16.770    0.13E-04    0.90E-05    0.63E-08
   0      9    10.195    80.708    0.19E-03    0.15E-03    0.44E-07
   1      9    10.195     6.696    0.12E-04    0.45E-04    0.30E-07
   1      9    10.195     8.973    0.12E-03    0.15E-03    0.13E-06
 Optimization of the real space projectors (new method)

 maximal supplied QI-value         = 19.84
 optimisation between [QCUT,QGAM] = [ 10.12, 20.44] = [ 28.68,116.96] Ry 
 Optimized for a Real-space Cutoff    1.42 Angstroem

   l    n(q)    QCUT    max X(q) W(low)/X(q) W(high)/X(q)  e(spline) 
   0      9    10.119     5.487    0.15E-04    0.47E-05    0.66E-08
   0      9    10.119    85.627    0.51E-04    0.92E-04    0.63E-07
   1      8    10.119     3.530    0.37E-05    0.76E-05    0.28E-07
   1      8    10.119    42.714    0.16E-03    0.16E-03    0.23E-06
 Optimization of the real space projectors (new method)

 maximal supplied QI-value         = 34.20
 optimisation between [QCUT,QGAM] = [  9.92, 20.18] = [ 27.55,114.04] Ry 
 Optimized for a Real-space Cutoff    1.34 Angstroem

   l    n(q)    QCUT    max X(q) W(low)/X(q) W(high)/X(q)  e(spline) 
   0      8     9.919     4.436    0.31E-04    0.59E-04    0.66E-07
   0      8     9.919    16.131    0.16E-03    0.20E-03    0.35E-06
   1      8     9.919     4.654    0.19E-03    0.46E-03    0.40E-06
 PAW_PBE O 08Apr2002                    :
 energy of atom  1       EATOM= -432.3788
 kinetic energy error for atom=    0.1156 (will be added to EATOM!!)
 PAW_PBE Si 05Jan2001                   :
 energy of atom  2       EATOM= -103.0669
 kinetic energy error for atom=    0.0012 (will be added to EATOM!!)
 PAW_PBE Al 04Jan2001                   :
 energy of atom  3       EATOM=  -53.5387
 kinetic energy error for atom=    0.0005 (will be added to EATOM!!)
 PAW_PBE Ag 06Sep2000                   :
 energy of atom  4       EATOM=-1037.4134
 kinetic energy error for atom=    0.0091 (will be added to EATOM!!)
  PAW_PBE S 17Jan2003                   :
 energy of atom  5       EATOM= -276.8230
 kinetic energy error for atom=    0.0046 (will be added to EATOM!!)
 PAW_PBE H 15Jun2001                    :
 energy of atom  6       EATOM=  -12.4884
 kinetic energy error for atom=    0.0098 (will be added to EATOM!!)
 
 
 POSCAR: O  C                                    
  positions in direct lattice
  velocities in cartesian coordinates
 exchange correlation table for  LEXCH =        8
   RHO(1)=    0.500       N(1)  =     2000
   RHO(2)=  100.500       N(2)  =     4000

 VTST: version 3.2, (02/03/18)

 CHAIN: initializing optimizer
 
 OPT: Using VASP Dynamics algorithm
 CHAIN: Read ICHAIN            0
 
 POSCAR: O  C                                    
  positions in direct lattice
  velocities in cartesian coordinates
 


--------------------------------------------------------------------------------------------------------


 ion  position               nearest neighbor table
   1  0.899  0.099  0.119-  73 1.63  80 1.63
   2  0.101  0.887  0.881-  79 1.62  74 1.63
   3  0.892  0.792  0.126-  83 1.61  75 1.63
   4  0.095  0.198  0.868-  76 1.63  82 1.63
   5  0.196  0.105  0.118-  77 1.63  81 1.63
   6  0.802  0.903  0.880-  78 1.59 106 1.73
   7  0.552  0.426  0.458-  84 1.62  90 1.63
   8  0.763  0.236  0.220-  89 1.59 107 1.73
   9  0.567  0.143  0.472-  94 1.65  85 1.65
  10  0.766  0.538  0.205-  93 1.63  86 1.63
  11  0.864  0.425  0.466-  92 1.63  87 1.64
  12  0.464  0.237  0.185-  88 1.63  91 1.64
  13  0.232  0.775  0.774- 102 1.61  95 1.64
  14  0.424  0.569  0.525-  96 1.66 101 1.67 110 2.55
  15  0.229  0.446  0.772-  97 1.61 105 1.62
  16  0.427  0.850  0.533-  98 1.63 108 1.79 110 2.27
  17  0.530  0.757  0.806-  99 1.63 104 1.64
  18  0.124  0.560  0.533- 103 1.65 100 1.68 110 2.44
  19  0.977  0.317  0.163-  73 1.61  89 1.63
  20  0.023  0.669  0.843- 102 1.61  74 1.63
  21  0.678  0.674  0.177-  93 1.61  75 1.63
  22  0.313  0.315  0.820- 105 1.62  76 1.63
  23  0.318  0.016  0.178-  77 1.61  91 1.63
  24  0.664  0.980  0.828- 104 1.62  78 1.63
  25  0.321  0.984  0.839-  79 1.62  95 1.63
  26  0.678  0.007  0.163-  80 1.60 107 1.74 109 2.52
  27  0.668  0.671  0.816-  99 1.61 106 1.77 111 2.28
  28  0.332  0.325  0.159-  81 1.62  88 1.62
  29  0.015  0.336  0.832-  97 1.61  82 1.62
  30  0.987  0.673  0.178-  86 1.62  83 1.62
  31  0.646  0.641  0.506- 101 1.61  84 1.62
  32  0.343  0.993  0.476-  85 1.59 108 1.71
  33  0.995  0.337  0.499- 103 1.61  87 1.63
  34  0.334  0.349  0.483-  96 1.61  90 1.63
  35  0.985  0.642  0.507- 100 1.62  92 1.62
  36  0.648  0.007  0.516-  98 1.61  94 1.64
  37  0.118  0.245  0.130-  81 1.61  73 1.62
  38  0.882  0.742  0.861-  74 1.61 106 1.76 111 2.49
  39  0.762  0.880  0.117-  80 1.60  75 1.61
  40  0.226  0.107  0.872-  76 1.61  79 1.62
  41  0.110  0.884  0.132-  77 1.61  83 1.61
  42  0.875  0.122  0.862-  82 1.61  78 1.63
  43  0.771  0.551  0.475-  84 1.62  92 1.62
  44  0.536  0.088  0.176-  91 1.62 107 1.79 109 2.32
  45  0.414  0.209  0.469-  90 1.60  85 1.64
  46  0.904  0.455  0.198-  86 1.61  89 1.63
  47  0.784  0.206  0.455-  87 1.60  94 1.63
  48  0.546  0.457  0.199-  88 1.61  93 1.62
  49  0.448  0.896  0.808- 104 1.62  95 1.64
  50  0.209  0.428  0.545-  96 1.62 103 1.62
  51  0.123  0.555  0.804-  97 1.61 102 1.62
  52  0.578  0.787  0.522- 101 1.61  98 1.64
  53  0.447  0.535  0.802- 105 1.62  99 1.63
  54  0.201  0.777  0.548- 100 1.58 108 1.74
  55  0.998  0.261  0.996-  82 1.62  73 1.63
  56  0.996  0.728  0.006-  74 1.63  83 1.63
  57  0.726  0.714  0.002-  75 1.60 106 1.73
  58  0.256  0.266  0.992-  76 1.63  81 1.63
  59  0.265  0.999  0.005-  79 1.63  77 1.64
  60  0.666  0.589  0.337-  84 1.61  93 1.63
  61  0.631  0.051  0.342-  94 1.60 107 1.72
  62  0.440  0.109  0.326-  91 1.61  85 1.63
  63  0.913  0.583  0.338-  92 1.61  86 1.63
  64  0.938  0.346  0.332-  87 1.62  89 1.64
  65  0.403  0.322  0.324-  90 1.62  88 1.63
  66  0.359  0.952  0.668-  95 1.59 108 1.74
  67  0.355  0.409  0.656-  96 1.62 105 1.64
  68  0.056  0.409  0.666- 103 1.62  97 1.63
  69  0.575  0.897  0.669- 104 1.61  98 1.62
  70  0.566  0.659  0.663- 101 1.61  99 1.63
  71  0.052  0.636  0.672- 100 1.64 102 1.64
  72  0.731  0.008  0.995-  78 1.66  80 1.67 109 2.51
  73  0.996  0.230  0.103-  19 1.61  37 1.62  55 1.63   1 1.63  89 3.10  81 3.10  82 3.13  80 3.13

  74  1.000  0.758  0.899-  38 1.61  56 1.63  20 1.63   2 1.63 102 3.07  83 3.11 106 3.17
  75  0.764  0.764  0.102-  57 1.60  39 1.61  21 1.63   3 1.63  93 3.01 106 3.08  83 3.13
  76  0.222  0.221  0.889-  40 1.61  58 1.63   4 1.63  22 1.63 105 3.06  81 3.11  82 3.13
  77  0.222  0.002  0.108-  41 1.61  23 1.61   5 1.63  59 1.64  91 3.05  79 3.08  83 3.14
  78  0.770  1.000  0.891-   6 1.59  42 1.63  24 1.63  72 1.66 104 3.07  82 3.10  80 3.11 106 3.22

  79  0.227  0.993  0.899-  25 1.62  40 1.62   2 1.62  59 1.63  95 3.08  77 3.08
  80  0.769  0.999  0.101-  26 1.60  39 1.60   1 1.63  72 1.67  78 3.11  73 3.13 109 3.17 107 3.17

  81  0.226  0.235  0.099-  37 1.61  28 1.62   5 1.63  58 1.63  88 3.05  73 3.10  76 3.11
  82  0.996  0.228  0.891-  42 1.61  55 1.62  29 1.62   4 1.63  97 3.05  78 3.10  73 3.13  76 3.13

  83  0.995  0.769  0.109-   3 1.61  41 1.61  30 1.62  56 1.63  86 3.03  74 3.11  75 3.13  77 3.14

  84  0.658  0.551  0.442-  60 1.61  43 1.62   7 1.62  31 1.62 101 3.07  92 3.10  90 3.14  93 3.14

  85  0.439  0.110  0.436-  32 1.59  62 1.63  45 1.64   9 1.65  94 3.02  90 3.04 108 3.08
  86  0.892  0.561  0.230-  46 1.61  30 1.62  10 1.63  63 1.63  83 3.03  89 3.10  93 3.13
  87  0.893  0.327  0.436-  47 1.60  64 1.62  33 1.63  11 1.64 103 3.02  89 3.07  92 3.12
  88  0.437  0.335  0.217-  48 1.61  28 1.62  12 1.63  65 1.63  81 3.05  91 3.06  93 3.13
  89  0.891  0.335  0.228-   8 1.59  19 1.63  46 1.63  64 1.64  87 3.07  86 3.10  73 3.10 107 3.23

  90  0.426  0.325  0.432-  45 1.60  65 1.62   7 1.63  34 1.63  96 3.04  85 3.04  84 3.14
  91  0.440  0.112  0.217-  62 1.61  44 1.62  23 1.63  12 1.64  77 3.05  88 3.06 107 3.07
  92  0.884  0.550  0.444-  63 1.61  35 1.62  43 1.62  11 1.63 100 3.05  84 3.10  87 3.12
  93  0.665  0.564  0.229-  21 1.61  48 1.62  10 1.63  60 1.63  75 3.01  86 3.13  88 3.13  84 3.14

  94  0.656  0.101  0.443-  61 1.60  47 1.63  36 1.64   9 1.65  85 3.02  98 3.05 107 3.12
  95  0.340  0.903  0.769-  66 1.59  25 1.63  13 1.64  49 1.64 104 3.08  79 3.08 108 3.11
  96  0.331  0.437  0.554-  34 1.61  50 1.62  67 1.62  14 1.66  90 3.04 105 3.09 101 3.10
  97  0.106  0.436  0.769-  29 1.61  51 1.61  15 1.61  68 1.63  82 3.05 102 3.07 103 3.07
  98  0.557  0.888  0.560-  36 1.61  69 1.62  16 1.63  52 1.64 101 3.04  94 3.05 108 3.17 110 3.33

  99  0.553  0.657  0.773-  27 1.61  70 1.63  53 1.63  17 1.63 105 3.07 104 3.08 106 3.14
 100  0.092  0.659  0.566-  54 1.58  35 1.62  71 1.64  18 1.68  92 3.05 102 3.07 103 3.12 110 3.27

 101  0.555  0.665  0.555-  70 1.61  31 1.61  52 1.61  14 1.67  98 3.04  84 3.07  96 3.10
 102  0.110  0.662  0.773-  13 1.61  20 1.61  51 1.62  71 1.64  97 3.07  74 3.07 100 3.07
 103  0.094  0.431  0.561-  33 1.61  50 1.62  68 1.62  18 1.65  87 3.02  97 3.07 100 3.12
 104  0.554  0.882  0.776-  69 1.61  24 1.62  49 1.62  17 1.64  78 3.07  95 3.08  99 3.08
 105  0.336  0.426  0.763-  22 1.62  15 1.62  53 1.62  67 1.64  76 3.06  99 3.07  96 3.09
 106  0.771  0.764  0.894-  57 1.73   6 1.73  38 1.76  27 1.77  75 3.08 111 3.10  99 3.14  74 3.17
                            78 3.22
 107  0.656  0.097  0.232-  61 1.72   8 1.73  26 1.74  44 1.79  91 3.07 109 3.10  94 3.12  80 3.17
                            89 3.23
 108  0.331  0.899  0.558-  32 1.71  54 1.74  66 1.74  16 1.79  85 3.08  95 3.11  98 3.17 110 3.25

 109  0.561  0.022  0.038-  44 2.32  72 2.51  26 2.52 107 3.10  80 3.17
 110  0.319  0.671  0.481-  16 2.27  18 2.44  14 2.55 108 3.25 100 3.27  98 3.33
 111  0.753  0.572  0.771-  27 2.28 112 2.39  38 2.49 106 3.10
 112  0.756  0.412  0.709- 114 1.36 113 1.36 111 2.39
 113  0.869  0.467  0.690- 112 1.36
 114  0.730  0.420  0.622- 112 1.36
 
  LATTYP: Found a hexagonal cell.
 ALAT       =    13.6750001907
 C/A-ratio  =     1.0798537472
  
  Lattice vectors:
  
 A1 = (  13.6750001907,   0.0000000000,   0.0000000000)
 A2 = (  -6.8375000954,  11.8428975619,   0.0000000000)
 A3 = (   0.0000000000,   0.0000000000,  14.7670001984)


Analysis of symmetry for initial positions (statically):
=====================================================================
 Subroutine PRICEL returns:
 Original cell was already a primitive cell.
 

 Routine SETGRP: Setting up the symmetry group for a 
 hexagonal supercell.


 Subroutine GETGRP returns: Found  1 space group operations
 (whereof  1 operations were pure point group operations)
 out of a pool of 24 trial point group operations.


The static configuration has the point symmetry C_1 .


Analysis of symmetry for dynamics (positions and initial velocities):
=====================================================================
 Subroutine PRICEL returns:
 Original cell was already a primitive cell.
 

 Routine SETGRP: Setting up the symmetry group for a 
 hexagonal supercell.


 Subroutine GETGRP returns: Found  1 space group operations
 (whereof  1 operations were pure point group operations)
 out of a pool of 24 trial point group operations.


The dynamic configuration has the point symmetry C_1 .


Analysis of structural, dynamic, and magnetic symmetry:
=====================================================================
 Subroutine PRICEL returns:
 Original cell was already a primitive cell.
 

 Routine SETGRP: Setting up the symmetry group for a 
 hexagonal supercell.


 Subroutine GETGRP returns: Found  1 space group operations
 (whereof  1 operations were pure point group operations)
 out of a pool of 24 trial point group operations.


The magnetic configuration has the point symmetry C_1 .


 Subroutine INISYM returns: Found  1 space group operations
 (whereof  1 operations are pure point group operations),
 and found     1 'primitive' translations

 
 
 KPOINTS: Gamma points only                       
  k-points in reciprocal lattice
Space group operators:
 irot       det(A)        alpha          n_x          n_y          n_z        tau_x        tau_y        tau_z
    1     1.000000     0.000000     1.000000     0.000000     0.000000     0.000000     0.000000     0.000000

 ----------------------------------------------------------------------------- 
|                                                                             |
|           W    W    AA    RRRRR   N    N  II  N    N   GGGG   !!!           |
|           W    W   A  A   R    R  NN   N  II  NN   N  G    G  !!!           |
|           W    W  A    A  R    R  N N  N  II  N N  N  G       !!!           |
|           W WW W  AAAAAA  RRRRR   N  N N  II  N  N N  G  GGG   !            |
|           WW  WW  A    A  R   R   N   NN  II  N   NN  G    G                |
|           W    W  A    A  R    R  N    N  II  N    N   GGGG   !!!           |
|                                                                             |
|      Your generating k-point grid is not commensurate to the symmetry       |
|      of the lattice.  This can cause   slow convergence with respect        |
|      to k-points for HF type calculations                                   |
|      suggested SOLUTIONS:                                                   |
|       ) if not already the case, use automatic k-point generation           |
|       ) shift your grid to Gamma (G) (e.g. required for hex or fcc lattice) |
|                                                                             |
 ----------------------------------------------------------------------------- 

 
 Subroutine IBZKPT_HF returns following result:
 ==============================================
 
 Found      1 k-points in 1st BZ
 the following      1 k-points will be used (e.g. in the exchange kernel)
 Following reciprocal coordinates:   # in IRBZ
  0.000000  0.000000  0.000000    1.00000000   1 t-inv F


--------------------------------------------------------------------------------------------------------




 Dimension of arrays:
   k-points           NKPTS =      1   k-points in BZ     NKDIM =      1   number of bands    NBANDS=    428
   number of dos      NEDOS =    301   number of ions     NIONS =    114
   non local maximal  LDIM  =      6   non local SUM 2l+1 LMDIM =     18
   total plane-waves  NPLWV = 777600
   max r-space proj   IRMAX =   4725   max aug-charges    IRDMAX= 128081
   dimension x,y,z NGX =    90 NGY =   90 NGZ =   96
   dimension x,y,z NGXF=   180 NGYF=  180 NGZF=  192
   support grid    NGXF=   360 NGYF=  360 NGZF=  384
   ions per type =              72  33   3   3   1   2
   NGX,Y,Z   is equivalent  to a cutoff of  10.94, 10.94, 10.81 a.u.
   NGXF,Y,Z  is equivalent  to a cutoff of  21.88, 21.88, 21.62 a.u.

 SYSTEM =  SiO2                                    
 POSCAR =  O  C                                    

 Startparameter for this run:
   NWRITE =      2    write-flag & timer
   PREC   = acc       normal or accurate (medium, high low for compatibility)
   ISTART =      0    job   : 0-new  1-cont  2-samecut
   ICHARG =      2    charge: 1-file 2-atom 10-const
   ISPIN  =      2    spin polarized calculation?
   LNONCOLLINEAR =      F non collinear calculations
   LSORBIT =      F    spin-orbit coupling
   INIWAV =      1    electr: 0-lowe 1-rand  2-diag
   LASPH  =      F    aspherical Exc in radial PAW
   METAGGA=      F    non-selfconsistent MetaGGA calc.

 Electronic Relaxation 1
   ENCUT  =  400.0 eV  29.40 Ry    5.42 a.u.  22.30 22.30 24.08*2*pi/ulx,y,z
   ENINI  =  400.0     initial cutoff
   ENAUG  =  605.4 eV  augmentation charge cutoff
   NELM   =    100;   NELMIN=  2; NELMDL= -5     # of ELM steps 
   EDIFF  = 0.1E-04   stopping-criterion for ELM
   LREAL  =      T    real-space projection
   NLSPLINE    = F    spline interpolate recip. space projectors
   LCOMPAT=      F    compatible to vasp.4.4
   GGA_COMPAT  = T    GGA compatible to vasp.4.4-vasp.4.6
   LMAXPAW     = -100 max onsite density
   LMAXMIX     =    2 max onsite mixed and CHGCAR
   VOSKOWN=      0    Vosko Wilk Nusair interpolation
   ROPT   =   -0.00025  -0.00025  -0.00025  -0.00025
   ROPT   =   -0.00025  -0.00025
 Ionic relaxation
   EDIFFG = 0.1E-03   stopping-criterion for IOM
   NSW    =      0    number of steps for IOM
   NBLOCK =      1;   KBLOCK =      1    inner block; outer block 
   IBRION =     -1    ionic relax: 0-MD 1-quasi-New 2-CG
   NFREE  =      0    steps in history (QN), initial steepest desc. (CG)
   ISIF   =      0    stress and relaxation
   IWAVPR =     10    prediction:  0-non 1-charg 2-wave 3-comb
   ISYM   =      3    0-nonsym 1-usesym 2-fastsym
   LCORR  =      T    Harris-Foulkes like correction to forces

   POTIM  = 0.5000    time-step for ionic-motion
   TEIN   =    0.0    initial temperature
   TEBEG  =    0.0;   TEEND  =   0.0 temperature during run
   SMASS  =  -3.00    Nose mass-parameter (am)
   estimated Nose-frequenzy (Omega)   =  0.10E-29 period in steps =****** mass=  -0.427E-26a.u.
   SCALEE = 1.0000    scale energy and forces
   NPACO  =    256;   APACO  = 16.0  distance and # of slots for P.C.
   PSTRESS=    0.0 pullay stress

  Mass of Ions in am
   POMASS =  16.00 28.09 26.98107.87 32.07  1.00
  Ionic Valenz
   ZVAL   =   6.00  4.00  3.00 11.00  6.00  1.00
  Atomic Wigner-Seitz radii
   RWIGS  =  -1.00 -1.00 -1.00 -1.00 -1.00 -1.00
  virtual crystal weights 
   VCA    =   1.00  1.00  1.00  1.00  1.00  1.00
   NELECT =     614.0000    total number of electrons
   NUPDOWN=      -1.0000    fix difference up-down

 DOS related values:
   EMIN   =  10.00;   EMAX   =-10.00  energy-range for DOS
   EFERMI =   0.00
   ISMEAR =     0;   SIGMA  =   0.05  broadening in eV -4-tet -1-fermi 0-gaus

 Electronic relaxation 2 (details)
   IALGO  =     38    algorithm
   LDIAG  =      T    sub-space diagonalisation (order eigenvalues)
   LSUBROT=      F    optimize rotation matrix (better conditioning)
   TURBO    =      0    0=normal 1=particle mesh
   IRESTART =      0    0=no restart 2=restart with 2 vectors
   NREBOOT  =      0    no. of reboots
   NMIN     =      0    reboot dimension
   EREF     =   0.00    reference energy to select bands
   IMIX   =      1    mixing-type and parameters
     AMIX     =   0.40;   BMIX     =  1.00
     AMIX_MAG =   1.60;   BMIX_MAG =  1.00
     AMIN     =   0.10
     WC   =   100.;   INIMIX=   1;  MIXPRE=   1;  MAXMIX= -45

 Intra band minimization:
   WEIMIN = 0.0000     energy-eigenvalue tresh-hold
   EBREAK =  0.58E-08  absolut break condition
   DEPER  =   0.30     relativ break condition  

   TIME   =   0.40     timestep for ELM

  volume/ion in A,a.u.               =      20.98       141.57
  Fermi-wavevector in a.u.,A,eV,Ry     =   1.040491  1.966243 14.729966  1.082622
  Thomas-Fermi vector in A             =   2.175069
 
 Write flags
   LWAVE        =      F    write WAVECAR
   LDOWNSAMPLE  =      F    k-point downsampling of WAVECAR
   LCHARG       =      F    write CHGCAR
   LVTOT        =      F    write LOCPOT, total local potential
   LVHAR        =      F    write LOCPOT, Hartree potential only
   LELF         =      F    write electronic localiz. function (ELF)
   LORBIT       =     11    0 simple, 1 ext, 2 COOP (PROOUT), +10 PAW based schemes


 Dipole corrections
   LMONO  =      F    monopole corrections only (constant potential shift)
   LDIPOL =      F    correct potential (dipole corrections)
   IDIPOL =      0    1-x, 2-y, 3-z, 4-all directions 
   EPSILON=  1.0000000 bulk dielectric constant

 Exchange correlation treatment:
   GGA     =    PE    GGA type
   LEXCH   =     8    internal setting for exchange type
   VOSKOWN=      0    Vosko Wilk Nusair interpolation
   EXXOEP  =     0    0=HF, 1=EXX-LHF (local Hartree Fock) 2=EXX OEP
   LHFCALC =     T    Hartree Fock is set to
   LSYMGRAD=     F    symmetrize gradient (conserves proper symmetry)
   PRECFOCK=normal    Normal, Fast or Accurate (Low or Medium for compatibility)
   LRHFCALC=     F    long range Hartree Fock
   LRSCOR  =     F    long range correlation only (use DFT for short range part)
   LTHOMAS =     F    Thomas Fermi screening in HF
   LMODELHF=     F    short range full HF, long range fraction AEXX
   ENCUT4O =  -1.0   cutoff for four orbital integrals eV
   LMAXFOCK=     4    L truncation for augmentation on plane wave grid
   LMAXFOCKAE=  -1    L truncation for all-electron charge restoration on plane wave grid
   NMAXFOCKAE=   1    number of basis functions for all-electron charge restoration
   LFOCKAEDFT=     F  apply the AE augmentation even for DFT
   NKREDX  =     1    reduce k-point grid by
   NKREDY  =     1    reduce k-point grid by
   NKREDZ  =     1    reduce k-point grid by
   SHIFTRED=     F    shift reduced grid of Gamma
   HFKIDENT=     F    idential grid for each k-point
   ODDONLY =     F    use only odd q-grid points
   EVENONLY=     F    use only even q-grid points
   HFALPHA =   -1.0000 decay constant for conv. correction
   MCALPHA =    0.0000 extent of test-charge in conv. correction in multipole expansion
   AEXX    =    0.2500 exact exchange contribution
   HFSCREEN=    0.2000 screening length (either q_TF or 0.3 A-1)
   HFSCREENC=   0.2000 screening length for correlation (either q_TF or 0.3 A-1)
   HFRCUT  =    0.0000 spherical cutoff for potential kernel
   ALDAX   =    0.7500 LDA exchange part
   AGGAX   =    0.7500 GGA exchange part
   ALDAC   =    1.0000 LDA correlation
   AGGAC   =    1.0000 GGA correlation
   ENCUTFOCK=  -1.0 apply spherical cutoff to Coloumb kernel
   NBANDSGWLOW=     1    first orbital included in HF term
   NBLOCK_FOCK=    64    blocking factor in FOCK_ACC
 Linear response parameters
   LEPSILON=     F    determine dielectric tensor
   LRPA    =     F    only Hartree local field effects (RPA)
   LNABLA  =     F    use nabla operator in PAW spheres
   LVEL    =     F    velocity operator in full k-point grid
   LINTERFAST=   F  fast interpolation
   KINTER  =     0    interpolate to denser k-point grid
   CSHIFT  =0.1000    complex shift for real part using Kramers Kronig
   OMEGAMAX=  -1.0    maximum frequency
   DEG_THRESHOLD= 0.2000000E-02 threshold for treating states as degnerate
   RTIME   =   -0.100 relaxation time in fs
  (WPLASMAI=    0.000 imaginary part of plasma frequency in eV, 0.658/RTIME)
   DFIELD  = 0.0000000 0.0000000 0.0000000 field for delta impulse in time
 
 Orbital magnetization related:
   ORBITALMAG=     F  switch on orbital magnetization
   LCHIMAG   =     F  perturbation theory with respect to B field
   DQ        =  0.001000  dq finite difference perturbation B field
   LLRAUG    =     F  two centre corrections for induced B field



--------------------------------------------------------------------------------------------------------


 Static calculation
 charge density and potential will be updated during run
 spin polarized calculation
 Variant of blocked Davidson
 Davidson routine will perform the subspace rotation
 perform sub-space diagonalisation
    after iterative eigenvector-optimisation
 Kerker-like  mixing scheme
 using additional bands          121
 real space projection scheme for non local part
 use partial core corrections
 calculate Harris-corrections to forces 
   (improved forces if not selfconsistent)
 use gradient corrections 
 use of overlap-Matrix (Vanderbilt PP)
 Gauss-broadening in eV      SIGMA  =   0.05


--------------------------------------------------------------------------------------------------------


  energy-cutoff  :      400.00
  volume of cell :     2391.54
      direct lattice vectors                 reciprocal lattice vectors
    13.675000191  0.000000000  0.000000000     0.073126142  0.042219398  0.000000000
    -6.837500095 11.842897562  0.000000000     0.000000000  0.084438795  0.000000000
     0.000000000  0.000000000 14.767000198     0.000000000  0.000000000  0.067718561

  length of vectors
    13.675000191 13.675000191 14.767000198     0.084438795  0.084438795  0.067718561


 
 k-points in units of 2pi/SCALE and weight: Gamma points only                       
   0.00000000  0.00000000  0.00000000       1.000
 
 k-points in reciprocal lattice and weights: Gamma points only                       
   0.00000000  0.00000000  0.00000000       1.000
 
 position of ions in fractional coordinates (direct lattice) 
   0.89873133  0.09903087  0.11876697
   0.10143377  0.88729010  0.88121363
   0.89176658  0.79198943  0.12618397
   0.09502268  0.19807102  0.86780654
   0.19611801  0.10529020  0.11757704
   0.80233639  0.90296562  0.88045322
   0.55204312  0.42615996  0.45829369
   0.76338598  0.23601822  0.22029428
   0.56651311  0.14305213  0.47164348
   0.76562666  0.53808673  0.20493571
   0.86398572  0.42471103  0.46597429
   0.46429256  0.23721741  0.18450782
   0.23179104  0.77471196  0.77414204
   0.42423186  0.56888676  0.52542480
   0.22904758  0.44592920  0.77180100
   0.42710053  0.85000904  0.53255720
   0.52989629  0.75674542  0.80620058
   0.12386537  0.56020966  0.53293716
   0.97715762  0.31667017  0.16301489
   0.02306358  0.66923750  0.84317264
   0.67833081  0.67422491  0.17746998
   0.31280323  0.31547743  0.81957123
   0.31823634  0.01595854  0.17844218
   0.66366979  0.97997835  0.82827618
   0.32098369  0.98386177  0.83948733
   0.67776187  0.00679230  0.16276881
   0.66822003  0.67121783  0.81555703
   0.33218692  0.32505732  0.15867688
   0.01506395  0.33617914  0.83228723
   0.98744766  0.67263716  0.17788594
   0.64629210  0.64087401  0.50589914
   0.34285513  0.99308047  0.47569135
   0.99525361  0.33731382  0.49929952
   0.33428136  0.34896646  0.48262059
   0.98504477  0.64234580  0.50671123
   0.64762450  0.00695908  0.51568404
   0.11778382  0.24471926  0.12983795
   0.88169977  0.74216751  0.86146084
   0.76249790  0.87992288  0.11725458
   0.22585798  0.10703544  0.87168494
   0.11044989  0.88440009  0.13185483
   0.87524425  0.12237213  0.86219304
   0.77075500  0.55055669  0.47489390
   0.53565984  0.08814933  0.17560448
   0.41409557  0.20930949  0.46886411
   0.90427924  0.45546477  0.19803270
   0.78366300  0.20620774  0.45484689
   0.54584102  0.45711302  0.19870830
   0.44786216  0.89612925  0.80848965
   0.20922744  0.42805772  0.54457228
   0.12291964  0.55544768  0.80388680
   0.57815422  0.78741246  0.52174464
   0.44735168  0.53499404  0.80232655
   0.20058579  0.77694554  0.54764596
   0.99802168  0.26126313  0.99616640
   0.99557291  0.72820097  0.00584676
   0.72572808  0.71441153  0.00231126
   0.25641879  0.26615625  0.99244856
   0.26465226  0.99902559  0.00503393
   0.66583921  0.58850308  0.33722203
   0.63141392  0.05059984  0.34224785
   0.44006126  0.10889846  0.32578463
   0.91336478  0.58306716  0.33835092
   0.93808888  0.34649419  0.33217737
   0.40315250  0.32181828  0.32386803
   0.35872263  0.95168067  0.66799008
   0.35459039  0.40913706  0.65560366
   0.05581719  0.40882701  0.66647169
   0.57465848  0.89740986  0.66852234
   0.56578452  0.65920332  0.66291025
   0.05239879  0.63577937  0.67194782
   0.73091851  0.00829002  0.99531716
   0.99635403  0.22966652  0.10256338
   0.99952148  0.75839345  0.89881953
   0.76352173  0.76352138  0.10233555
   0.22177553  0.22128063  0.88893988
   0.22186257  0.00187837  0.10789070
   0.77035507  0.99959150  0.89050555
   0.22710509  0.99322991  0.89934455
   0.76927923  0.99871337  0.10079492
   0.22564621  0.23450143  0.09917468
   0.99601128  0.22763845  0.89083641
   0.99502178  0.76891344  0.10933770
   0.65844970  0.55138365  0.44169258
   0.43949964  0.10977486  0.43600550
   0.89175156  0.56134286  0.22967869
   0.89275795  0.32659538  0.43551318
   0.43697419  0.33471116  0.21712540
   0.89128604  0.33476594  0.22788967
   0.42609117  0.32505101  0.43167236
   0.44011876  0.11249203  0.21694370
   0.88417047  0.54999814  0.44367838
   0.66473835  0.56436614  0.22905568
   0.65556565  0.10068358  0.44276099
   0.33970990  0.90331060  0.76862536
   0.33100663  0.43658862  0.55355557
   0.10642177  0.43619385  0.76926237
   0.55656420  0.88806112  0.55960432
   0.55316578  0.65665276  0.77254621
   0.09203269  0.65869718  0.56561788
   0.55533426  0.66527345  0.55485966
   0.10997457  0.66225687  0.77318479
   0.09401642  0.43129323  0.56133392
   0.55361997  0.88223916  0.77644939
   0.33565914  0.42596122  0.76275177
   0.77075255  0.76448336  0.89406753
   0.65586535  0.09744249  0.23165495
   0.33082448  0.89936892  0.55804470
   0.56054441  0.02208335  0.03773208
   0.31866876  0.67097374  0.48061640
   0.75332432  0.57223940  0.77106926
   0.75645326  0.41244113  0.70884556
   0.86861533  0.46672900  0.68986138
   0.72952895  0.41950194  0.62159998
 
 position of ions in cartesian coordinates  (Angst):
  11.61302746  1.17281245  1.75383192
  -4.67973938 10.50808579 13.01288185
   6.77968026  9.37944974  1.86335870
  -0.05487546  2.34573480 12.81489942
   1.96199214  1.24694101  1.73626015
   4.79792273 10.69372930 13.00165283
   4.63532101  5.04696879  6.76762306
   8.82552880  2.79513966  3.25308574
   6.76894797  1.69415168  6.96475938
   6.79077669  6.37250600  3.02628571
   8.91104323  5.02980919  6.88104250
   4.72722679  2.80934143  2.72462699
  -2.12735068  9.17483444 11.43175559
   1.91160751  6.73726763  7.75894818
   0.08318467  5.28109389 11.39718547
   0.02866295 10.06656998  7.86427224
   2.07208506  8.96205846 11.90516410
  -2.13657469  6.63450559  7.86988321
  11.19739832  3.75029242  2.40724084
  -4.26051698  7.92571118 12.45113059
   4.66616101  7.98477655  2.62069924
   2.12050731  3.73616687 12.10260848
   4.24276551  0.18899541  2.63505568
   2.37508237 11.60578326 12.23115458
  -2.33770299 11.65177417 12.39670952
   9.22195132  0.08044047  2.40360702
   4.54845711  7.94916396 12.04333088
   2.32007678  3.84962052  2.34318153
  -2.09262544  3.98133513 12.29038562
   8.90419024  7.96597301  2.62684173
   4.45606846  7.58980523  7.47061273
  -2.10164384 11.76095026  7.02453426
  11.30371008  3.99477302  7.37315606
   2.18523944  4.13277401  7.12685833
   9.07844797  7.60723550  7.48260491
   8.80868252  0.08241565  7.61510633
  -0.06257412  2.89818509  1.91731705
   6.98267409  8.78941379 12.72119243
   4.41068613 10.42083649  1.73149847
   2.35675307  1.26760971 12.87217164
  -4.53668343 10.47385968  1.94710030
  11.13224578  1.44924059 12.73200475
   6.77564328  6.52018651  7.01275825
   6.72242737  1.04394343  2.59315142
   4.23160331  2.47883087  6.92371638
   9.25177838  5.39402263  2.92434888
   9.30664621  2.44209714  6.71672411
   4.33886570  5.41354272  2.93432556
  -0.00276865 10.61276688 11.93896683
  -0.06565948  5.06944372  8.04169893
  -2.11694753  6.57810997 11.87099656
   2.52232625  9.32524516  7.70460318
   2.45951257  6.33587956 11.84795635
  -2.56935455  9.20128650  8.08708802
  11.86155997  3.09411243 14.71038949
   8.63538555  8.62400954  0.08633913
   5.03954277  8.46070254  0.03413033
   1.68668357  3.15206123 14.65548806
  -3.21171777 11.83135768  0.07433609
   5.08146146  6.96958173  4.97975780
   8.28860907  0.59924878  5.05397413
   5.27324460  1.28967337  4.81086168
   8.50354172  6.90520468  4.99642806
  10.45921159  4.10349515  4.90526332
   3.31267798  3.81126090  4.78255929
  -1.60158463 11.27065670  9.86420964
   2.05154895  4.84536835  9.68129931
  -2.03205470  4.84169642  9.84178763
   1.72241484 10.62793306  9.87206953
   3.22980067  7.80687737  9.78919574
  -3.63058808  7.52946995  9.92265359
   9.93862774  0.09817789 14.69784871
  12.05479662  2.71991711  1.51455353
   8.48294111  8.98157595 13.27286814
   5.22058234  9.04230545  1.51118902
   1.51977404  2.62060388 13.12697542
   3.02112734  0.02224530  1.59322202
   3.69989877 11.83805977 13.15009561
  -3.68554746 11.76272006 13.28062114
   3.69119083 11.82766011  1.48843857
   1.48230838  2.77717638  1.46451253
  12.06397652  2.69589888 13.15498146
   8.34947731  9.10616308  1.61458981
   5.23421407  6.52998003  6.52247449
   5.25957203  1.30005243  6.43849327
   8.35652091  6.64792598  3.39166532
   9.97536916  3.86783564  6.43122326
   3.68703460  3.96394995  3.20629088
   9.89937469  3.96459869  3.36524685
   3.60426048  3.84954579  6.37450576
   5.24945984  1.33223155  3.20360772
   8.33041904  6.51357158  6.55179878
   5.23144344  6.68373041  3.38246526
   8.27643640  1.19238530  6.53825163
  -1.53085332 10.69781486 11.35029088
   1.54134093  5.17047431  8.17435516
  -1.52715771  5.16579910 11.35969763
   1.53889761 10.51721683  8.26367714
   3.07467883  7.77667133 11.40819005
  -3.24529493  7.80088320  8.35247939
   3.04538881  7.87876529  8.19361268
  -3.02427920  7.84304029 11.41761998
  -1.66329295  5.10776154  8.28921811
   1.53844288 10.44826795 11.46582828
   1.67762897  5.04461507 11.26355548
   5.31288619  9.05369816 13.20269544
   8.30269578  1.15400141  3.42084869
  -1.62541015 10.65113393  8.24064619
   7.51444999  0.26153080  0.55718968
  -0.22998763  7.94627323  7.09726246
   6.38902331  6.77697263 11.38637986
   7.52443218  4.88449805 10.46752252
   8.68705527  5.52742370 10.18718306
   7.10796396  4.96811844  9.17916702
 


--------------------------------------------------------------------------------------------------------


 k-point  1 :   0.0000 0.0000 0.0000  plane waves:   43405

 maximum and minimum number of plane-waves per node :     10852    10850

 maximum number of plane-waves:     43405
 maximum index in each direction: 
   IXMAX=   22   IYMAX=   22   IZMAX=   24
   IXMIN=  -22   IYMIN=  -22   IZMIN=  -24


 real space projection operators:
  total allocation   :      30483.87 KBytes
  max/ min on nodes  :       7782.92       7460.49


 parallel 3D FFT for wavefunctions:
    minimum data exchange during FFTs selected (reduces bandwidth)
 parallel 3D FFT for charge:
    minimum data exchange during FFTs selected (reduces bandwidth)


 FFT grid for exact exchange (Hartree Fock) 
  NGX = 70; NGY = 70; NGZ = 80

 
 Radii for the augmentation spheres in the non-local exchange
 for species   1 augmentation radius   0.820 (default was   0.722)
       energy cutoff for augmentation   1600.0
 for species   2 augmentation radius   1.055 (default was   0.989)
       energy cutoff for augmentation   1600.0
 for species   3 augmentation radius   1.041 (default was   1.041)
       energy cutoff for augmentation   1600.0
 for species   4 augmentation radius   1.279 (default was   1.125)
       energy cutoff for augmentation   1600.0
 for species   5 augmentation radius   1.034 (default was   0.970)
       energy cutoff for augmentation   1600.0
 for species   6 augmentation radius   0.588 (default was   0.520)
       energy cutoff for augmentation   1600.0

 real space projection operators:
  total allocation   :       4857.59 KBytes
  max/ min on nodes  :       1239.05       1187.06

 Maximum index for augmentation-charges in exchange          371
  SETUP_FOCK is finished

 total amount of memory used by VASP MPI-rank0   224970. kBytes
=======================================================================

   base      :      30000. kBytes
   nonlr-proj:      23154. kBytes
   fftplans  :      69849. kBytes
   grid      :      62827. kBytes
   one-center:        902. kBytes
   HF        :        259. kBytes
   wavefun   :      37979. kBytes
 
     INWAV:  cpu time    0.0001: real time    0.0013
 initial charge density was supplied:
 charge density of overlapping atoms calculated
 number of electron     614.0000000 magnetization     114.0000000
 keeping initial charge density in first step


--------------------------------------------------------------------------------------------------------


 Maximum index for non-local projection operator         1301
 Maximum index for augmentation-charges         7882 (set IRDMAX)


--------------------------------------------------------------------------------------------------------


 First call to EWALD:  gamma=   0.133
 Maximum number of real-space cells 3x 3x 3
 Maximum number of reciprocal cells 3x 3x 3

    FEWALD:  cpu time    0.0069: real time    0.0070


--------------------------------------- Iteration      1(   1)  ---------------------------------------


    POTLOK:  cpu time    1.6348: real time    1.6599
    SETDIJ:  cpu time    0.6542: real time    0.6560
     EDDAV:  cpu time   14.1358: real time   14.2148
       DOS:  cpu time    0.0007: real time    0.0007
    --------------------------------------------
      LOOP:  cpu time   16.4255: real time   16.5314

 eigenvalue-minimisations  :  1736
 total energy-change (2. order) : 0.5338891E+04  (-0.2449137E+05)
 number of electron     614.0000000 magnetization     114.0000000
 augmentation part      614.0000000 magnetization     114.0000000

 Free energy of the ion-electron system (eV)
  ---------------------------------------------------
  alpha Z        PSCENC =       630.52029633
  Ewald energy   TEWEN  =     -6243.44485430
  -Hartree energ DENC   =    -28474.44123447
  -exchange      EXHF   =         0.00000000
  -V(xc)+E(xc)   XCENC  =      1239.12202196
  PAW double counting   =     21922.34422313   -21354.59563623
  entropy T*S    EENTRO =        -0.04086524
  eigenvalues    EBANDS =      -103.85196128
  atomic energy  EATOM  =     37723.27950573
  Solvation  Ediel_sol  =         0.00000000
  ---------------------------------------------------
  free energy    TOTEN  =      5338.89149563 eV

  energy without entropy =     5338.93236087  energy(sigma->0) =     5338.91192825
  exchange ACFDT corr.  =         0.00000000  see jH, gK, PRB 81, 115126


--------------------------------------------------------------------------------------------------------




--------------------------------------- Iteration      1(   2)  ---------------------------------------


     EDDAV:  cpu time   16.6950: real time   16.7518
       DOS:  cpu time    0.0003: real time    0.0003
    --------------------------------------------
      LOOP:  cpu time   16.6953: real time   16.7521

 eigenvalue-minimisations  :  2144
 total energy-change (2. order) :-0.4304566E+04  (-0.4045570E+04)
 number of electron     614.0000000 magnetization     114.0000000
 augmentation part      614.0000000 magnetization     114.0000000

 Free energy of the ion-electron system (eV)
  ---------------------------------------------------
  alpha Z        PSCENC =       630.52029633
  Ewald energy   TEWEN  =     -6243.44485430
  -Hartree energ DENC   =    -28474.44123447
  -exchange      EXHF   =         0.00000000
  -V(xc)+E(xc)   XCENC  =      1239.12202196
  PAW double counting   =     21922.34422313   -21354.59563623
  entropy T*S    EENTRO =        -0.00000000
  eigenvalues    EBANDS =     -4408.45873936
  atomic energy  EATOM  =     37723.27950573
  Solvation  Ediel_sol  =         0.00000000
  ---------------------------------------------------
  free energy    TOTEN  =      1034.32558279 eV

  energy without entropy =     1034.32558279  energy(sigma->0) =     1034.32558279
  exchange ACFDT corr.  =         0.00000000  see jH, gK, PRB 81, 115126


--------------------------------------------------------------------------------------------------------




--------------------------------------- Iteration      1(   3)  ---------------------------------------


     EDDAV:  cpu time   16.0966: real time   16.1864
       DOS:  cpu time    0.0003: real time    0.0003
    --------------------------------------------
      LOOP:  cpu time   16.0969: real time   16.1867

 eigenvalue-minimisations  :  2040
 total energy-change (2. order) :-0.5005920E+03  (-0.4965680E+03)
 number of electron     614.0000000 magnetization     114.0000000
 augmentation part      614.0000000 magnetization     114.0000000

 Free energy of the ion-electron system (eV)
  ---------------------------------------------------
  alpha Z        PSCENC =       630.52029633
  Ewald energy   TEWEN  =     -6243.44485430
  -Hartree energ DENC   =    -28474.44123447
  -exchange      EXHF   =         0.00000000
  -V(xc)+E(xc)   XCENC  =      1239.12202196
  PAW double counting   =     21922.34422313   -21354.59563623
  entropy T*S    EENTRO =        -0.00000000
  eigenvalues    EBANDS =     -4909.05077084
  atomic energy  EATOM  =     37723.27950573
  Solvation  Ediel_sol  =         0.00000000
  ---------------------------------------------------
  free energy    TOTEN  =       533.73355130 eV

  energy without entropy =      533.73355130  energy(sigma->0) =      533.73355130
  exchange ACFDT corr.  =         0.00000000  see jH, gK, PRB 81, 115126


--------------------------------------------------------------------------------------------------------




--------------------------------------- Iteration      1(   4)  ---------------------------------------


     EDDAV:  cpu time   16.5108: real time   16.5622
       DOS:  cpu time    0.0003: real time    0.0003
    --------------------------------------------
      LOOP:  cpu time   16.5112: real time   16.5625

 eigenvalue-minimisations  :  2112
 total energy-change (2. order) :-0.1094283E+02  (-0.1089303E+02)
 number of electron     614.0000000 magnetization     114.0000000
 augmentation part      614.0000000 magnetization     114.0000000

 Free energy of the ion-electron system (eV)
  ---------------------------------------------------
  alpha Z        PSCENC =       630.52029633
  Ewald energy   TEWEN  =     -6243.44485430
  -Hartree energ DENC   =    -28474.44123447
  -exchange      EXHF   =         0.00000000
  -V(xc)+E(xc)   XCENC  =      1239.12202196
  PAW double counting   =     21922.34422313   -21354.59563623
  entropy T*S    EENTRO =        -0.00000000
  eigenvalues    EBANDS =     -4919.99359849
  atomic energy  EATOM  =     37723.27950573
  Solvation  Ediel_sol  =         0.00000000
  ---------------------------------------------------
  free energy    TOTEN  =       522.79072365 eV

  energy without entropy =      522.79072365  energy(sigma->0) =      522.79072365
  exchange ACFDT corr.  =         0.00000000  see jH, gK, PRB 81, 115126


--------------------------------------------------------------------------------------------------------




--------------------------------------- Iteration      1(   5)  ---------------------------------------


     EDDAV:  cpu time 2092.0509: real time 2101.8809
       DOS:  cpu time    0.0003: real time    0.0003
    CHARGE:  cpu time    1.1926: real time    1.1959
    MIXING:  cpu time    0.0064: real time    0.0064
    --------------------------------------------
      LOOP:  cpu time 2093.2503: real time 2103.0835

 eigenvalue-minimisations  :  2168
 total energy-change (2. order) :-0.1814244E+04  (-0.4266159E+02)
 number of electron     614.0000002 magnetization     -68.4000000
 augmentation part       68.4482282 magnetization     -67.3878476

 Free energy of the ion-electron system (eV)
  ---------------------------------------------------
  alpha Z        PSCENC =       630.52029633
  Ewald energy   TEWEN  =     -6243.44485430
  -Hartree energ DENC   =    -28474.44123447
  -exchange      EXHF   =      1750.11794739
  -V(xc)+E(xc)   XCENC  =      1239.12202196
  PAW double counting   =     21922.34422313   -21354.59563623
  entropy T*S    EENTRO =        -0.00000000
  eigenvalues    EBANDS =     -8484.35601009
  atomic energy  EATOM  =     37723.27950573
  Solvation  Ediel_sol  =         0.00000000
  ---------------------------------------------------
  free energy    TOTEN  =     -1291.45374055 eV

  energy without entropy =    -1291.45374055  energy(sigma->0) =    -1291.45374055
  exchange ACFDT corr.  =        -0.00000000  see jH, gK, PRB 81, 115126


--------------------------------------------------------------------------------------------------------




--------------------------------------- Iteration      1(   6)  ---------------------------------------


    POTLOK:  cpu time    1.3844: real time    1.3964
    SETDIJ:  cpu time    0.6510: real time    0.6527
     EDDAV:  cpu time 1948.8283: real time 1957.7732
       DOS:  cpu time    0.0003: real time    0.0003
    CHARGE:  cpu time    1.2351: real time    1.2385
    MIXING:  cpu time    0.0140: real time    0.0141
    --------------------------------------------
      LOOP:  cpu time 1952.1132: real time 1961.0753

 eigenvalue-minimisations  :  1940
 total energy-change (2. order) : 0.1837410E+03  (-0.2897406E+02)
 number of electron     614.0000003 magnetization      41.0400000
 augmentation part       62.3619171 magnetization      41.2600615

 Free energy of the ion-electron system (eV)
  ---------------------------------------------------
  alpha Z        PSCENC =       630.52029633
  Ewald energy   TEWEN  =     -6243.44485430
  -Hartree energ DENC   =    -29811.87982459
  -exchange      EXHF   =      1876.69634359
  -V(xc)+E(xc)   XCENC  =      1353.15931521
  PAW double counting   =     25722.17442192   -25173.55718326
  entropy T*S    EENTRO =        -0.00000000
  eigenvalues    EBANDS =     -7184.66077717
  atomic energy  EATOM  =     37723.27950573
  Solvation  Ediel_sol  =         0.00000000
  ---------------------------------------------------
  free energy    TOTEN  =     -1107.71275654 eV

  energy without entropy =    -1107.71275654  energy(sigma->0) =    -1107.71275654
  exchange ACFDT corr.  =        -0.00000000  see jH, gK, PRB 81, 115126


--------------------------------------------------------------------------------------------------------




--------------------------------------- Iteration      1(   7)  ---------------------------------------


    POTLOK:  cpu time    1.5250: real time    1.5349
    SETDIJ:  cpu time    0.6813: real time    0.6833
     EDDAV:  cpu time 1957.6567: real time 1966.2247
       DOS:  cpu time    0.0003: real time    0.0003
    CHARGE:  cpu time    1.2318: real time    1.2350
    MIXING:  cpu time    0.0068: real time    0.0068
    --------------------------------------------
      LOOP:  cpu time 1961.1019: real time 1969.6850

 eigenvalue-minimisations  :  1856
 total energy-change (2. order) :-0.3520693E+02  (-0.1486633E+02)
 number of electron     614.0000003 magnetization     -24.6240000
 augmentation part       58.7476330 magnetization     -24.8987268

 Free energy of the ion-electron system (eV)
  ---------------------------------------------------
  alpha Z        PSCENC =       630.52029633
  Ewald energy   TEWEN  =     -6243.44485430
  -Hartree energ DENC   =    -30296.12246298
  -exchange      EXHF   =      1800.87794160
  -V(xc)+E(xc)   XCENC  =      1343.75820074
  PAW double counting   =     27216.95571771   -26671.81189747
  entropy T*S    EENTRO =        -0.00000000
  eigenvalues    EBANDS =     -6646.93213444
  atomic energy  EATOM  =     37723.27950573
  Solvation  Ediel_sol  =         0.00000000
  ---------------------------------------------------
  free energy    TOTEN  =     -1142.91968708 eV

  energy without entropy =    -1142.91968708  energy(sigma->0) =    -1142.91968708
  exchange ACFDT corr.  =        -0.00000000  see jH, gK, PRB 81, 115126


--------------------------------------------------------------------------------------------------------




--------------------------------------- Iteration      1(   8)  ---------------------------------------


    POTLOK:  cpu time    1.4906: real time    1.5025
    SETDIJ:  cpu time    0.6472: real time    0.6488
     EDDAV:  cpu time 1941.8743: real time 1950.2218
       DOS:  cpu time    0.0003: real time    0.0003
    CHARGE:  cpu time    1.2124: real time    1.2155
    MIXING:  cpu time    0.0065: real time    0.0065
    --------------------------------------------
      LOOP:  cpu time 1945.2313: real time 1953.5954

 eigenvalue-minimisations  :  1836
 total energy-change (2. order) :-0.2064436E+02  (-0.4783689E+01)
 number of electron     614.0000003 magnetization      14.7744000
 augmentation part       58.2578220 magnetization      14.7378914

 Free energy of the ion-electron system (eV)
  ---------------------------------------------------
  alpha Z        PSCENC =       630.52029633
  Ewald energy   TEWEN  =     -6243.44485430
  -Hartree energ DENC   =    -30344.23557907
  -exchange      EXHF   =      1754.77699801
  -V(xc)+E(xc)   XCENC  =      1331.30482096
  PAW double counting   =     27551.82127848   -27005.14237256
  entropy T*S    EENTRO =        -0.00000000
  eigenvalues    EBANDS =     -6562.44414319
  atomic energy  EATOM  =     37723.27950573
  Solvation  Ediel_sol  =         0.00000000
  ---------------------------------------------------
  free energy    TOTEN  =     -1163.56404961 eV

  energy without entropy =    -1163.56404961  energy(sigma->0) =    -1163.56404961
  exchange ACFDT corr.  =         0.00000000  see jH, gK, PRB 81, 115126


--------------------------------------------------------------------------------------------------------




--------------------------------------- Iteration      1(   9)  ---------------------------------------


    POTLOK:  cpu time    1.4414: real time    1.4572
    SETDIJ:  cpu time    0.6365: real time    0.6382
     EDDAV:  cpu time 1889.8394: real time 1898.0012
       DOS:  cpu time    0.0003: real time    0.0003
    CHARGE:  cpu time    1.1868: real time    1.1951
    MIXING:  cpu time    0.0062: real time    0.0062
    --------------------------------------------
      LOOP:  cpu time 1893.1106: real time 1901.2982

 eigenvalue-minimisations  :  1788
 total energy-change (2. order) :-0.1400448E+02  (-0.2045544E+01)
 number of electron     614.0000003 magnetization      -8.8646400
 augmentation part       58.4835908 magnetization      -8.9917394

 Free energy of the ion-electron system (eV)
  ---------------------------------------------------
  alpha Z        PSCENC =       630.52029633
  Ewald energy   TEWEN  =     -6243.44485430
  -Hartree energ DENC   =    -30343.37347411
  -exchange      EXHF   =      1746.93131432
  -V(xc)+E(xc)   XCENC  =      1318.46630605
  PAW double counting   =     27669.99477679   -27122.21329289
  entropy T*S    EENTRO =        -0.00000000
  eigenvalues    EBANDS =     -6557.72910911
  atomic energy  EATOM  =     37723.27950573
  Solvation  Ediel_sol  =         0.00000000
  ---------------------------------------------------
  free energy    TOTEN  =     -1177.56853120 eV

  energy without entropy =    -1177.56853120  energy(sigma->0) =    -1177.56853120
  exchange ACFDT corr.  =        -0.00000000  see jH, gK, PRB 81, 115126


--------------------------------------------------------------------------------------------------------




--------------------------------------- Iteration      1(  10)  ---------------------------------------


    POTLOK:  cpu time    1.4511: real time    1.4648
    SETDIJ:  cpu time    0.6365: real time    0.6380
     EDDAV:  cpu time 1886.4468: real time 1894.2809
       DOS:  cpu time    0.0003: real time    0.0003
    CHARGE:  cpu time    1.1889: real time    1.1921
    MIXING:  cpu time    0.0064: real time    0.0064
    --------------------------------------------
      LOOP:  cpu time 1889.7301: real time 1897.5827

 eigenvalue-minimisations  :  1844
 total energy-change (2. order) :-0.3815584E+01  (-0.9118582E+00)
 number of electron     614.0000004 magnetization       5.3187840
 augmentation part       58.6910271 magnetization       5.3037334

 Free energy of the ion-electron system (eV)
  ---------------------------------------------------
  alpha Z        PSCENC =       630.52029633
  Ewald energy   TEWEN  =     -6243.44485430
  -Hartree energ DENC   =    -30364.32316523
  -exchange      EXHF   =      1748.93398885
  -V(xc)+E(xc)   XCENC  =      1316.45555316
  PAW double counting   =     27770.00821491   -27221.94179022
  entropy T*S    EENTRO =        -0.00000000
  eigenvalues    EBANDS =     -6540.87186490
  atomic energy  EATOM  =     37723.27950573
  Solvation  Ediel_sol  =         0.00000000
  ---------------------------------------------------
  free energy    TOTEN  =     -1181.38411566 eV

  energy without entropy =    -1181.38411566  energy(sigma->0) =    -1181.38411566
  exchange ACFDT corr.  =         0.00000000  see jH, gK, PRB 81, 115126


--------------------------------------------------------------------------------------------------------




--------------------------------------- Iteration      1(  11)  ---------------------------------------


    POTLOK:  cpu time    1.5108: real time    1.5223
    SETDIJ:  cpu time    0.6384: real time    0.6403
     EDDAV:  cpu time 1853.7976: real time 1861.5820
       DOS:  cpu time    0.0003: real time    0.0003
    CHARGE:  cpu time    1.1734: real time    1.2192
    MIXING:  cpu time    0.0143: real time    0.0144
    --------------------------------------------
      LOOP:  cpu time 1857.1349: real time 1864.9785

 eigenvalue-minimisations  :  1792
 total energy-change (2. order) :-0.4972513E+01  (-0.3948086E+00)
 number of electron     614.0000004 magnetization      -3.1912704
 augmentation part       58.6927482 magnetization      -3.2209163

 Free energy of the ion-electron system (eV)
  ---------------------------------------------------
  alpha Z        PSCENC =       630.52029633
  Ewald energy   TEWEN  =     -6243.44485430
  -Hartree energ DENC   =    -30394.93832605
  -exchange      EXHF   =      1750.57867489
  -V(xc)+E(xc)   XCENC  =      1313.75802159
  PAW double counting   =     27851.89889742   -27303.90704263
  entropy T*S    EENTRO =        -0.00000000
  eigenvalues    EBANDS =     -6514.10180126
  atomic energy  EATOM  =     37723.27950573
  Solvation  Ediel_sol  =         0.00000000
  ---------------------------------------------------
  free energy    TOTEN  =     -1186.35662828 eV

  energy without entropy =    -1186.35662828  energy(sigma->0) =    -1186.35662828
  exchange ACFDT corr.  =         0.00000000  see jH, gK, PRB 81, 115126


--------------------------------------------------------------------------------------------------------




--------------------------------------- Iteration      1(  12)  ---------------------------------------


    POTLOK:  cpu time    1.5624: real time    1.5735
    SETDIJ:  cpu time    0.6488: real time    0.6505
     EDDAV:  cpu time 1818.2208: real time 1825.7135
       DOS:  cpu time    0.0003: real time    0.0003
    CHARGE:  cpu time    1.1968: real time    1.2000
    MIXING:  cpu time    0.0066: real time    0.0066
    --------------------------------------------
      LOOP:  cpu time 1821.6357: real time 1829.1444

 eigenvalue-minimisations  :  1808
 total energy-change (2. order) :-0.3765116E+00  (-0.1254001E+00)
 number of electron     614.0000004 magnetization       1.9147622
 augmentation part       58.6632031 magnetization       1.9165907

 Free energy of the ion-electron system (eV)
  ---------------------------------------------------
  alpha Z        PSCENC =       630.52029633
  Ewald energy   TEWEN  =     -6243.44485430
  -Hartree energ DENC   =    -30414.32181524
  -exchange      EXHF   =      1749.93214372
  -V(xc)+E(xc)   XCENC  =      1314.23695468
  PAW double counting   =     27894.45445550   -27346.53558695
  entropy T*S    EENTRO =        -0.00000000
  eigenvalues    EBANDS =     -6494.85423930
  atomic energy  EATOM  =     37723.27950573
  Solvation  Ediel_sol  =         0.00000000
  ---------------------------------------------------
  free energy    TOTEN  =     -1186.73313984 eV

  energy without entropy =    -1186.73313984  energy(sigma->0) =    -1186.73313984
  exchange ACFDT corr.  =        -0.00000000  see jH, gK, PRB 81, 115126


--------------------------------------------------------------------------------------------------------




--------------------------------------- Iteration      1(  13)  ---------------------------------------


    POTLOK:  cpu time    1.5788: real time    1.6269
    SETDIJ:  cpu time    0.6376: real time    0.6394
     EDDAV:  cpu time 1917.9978: real time 1926.3647
       DOS:  cpu time    0.0004: real time    0.0004
    CHARGE:  cpu time    1.5043: real time    1.5085
    MIXING:  cpu time    0.0069: real time    0.0069
    --------------------------------------------
      LOOP:  cpu time 1921.7258: real time 1930.1467

 eigenvalue-minimisations  :  1828
 total energy-change (2. order) :-0.9327208E+00  (-0.5129590E-01)
 number of electron     614.0000004 magnetization      -1.1488573
 augmentation part       58.6352593 magnetization      -1.1530355

 Free energy of the ion-electron system (eV)
  ---------------------------------------------------
  alpha Z        PSCENC =       630.52029633
  Ewald energy   TEWEN  =     -6243.44485430
  -Hartree energ DENC   =    -30426.06476390
  -exchange      EXHF   =      1749.36945014
  -V(xc)+E(xc)   XCENC  =      1313.93860486
  PAW double counting   =     27912.93429345   -27365.02321894
  entropy T*S    EENTRO =        -0.00000000
  eigenvalues    EBANDS =     -6483.17517396
  atomic energy  EATOM  =     37723.27950573
  Solvation  Ediel_sol  =         0.00000000
  ---------------------------------------------------
  free energy    TOTEN  =     -1187.66586059 eV

  energy without entropy =    -1187.66586059  energy(sigma->0) =    -1187.66586059
  exchange ACFDT corr.  =        -0.00000000  see jH, gK, PRB 81, 115126


--------------------------------------------------------------------------------------------------------




--------------------------------------- Iteration      1(  14)  ---------------------------------------


    POTLOK:  cpu time    1.8584: real time    1.8719
    SETDIJ:  cpu time    0.7617: real time    0.7637
     EDDAV:  cpu time 2219.5584: real time 2229.4653
       DOS:  cpu time    0.0004: real time    0.0004
    CHARGE:  cpu time    1.3779: real time    1.3815
    MIXING:  cpu time    0.0150: real time    0.0151
    --------------------------------------------
      LOOP:  cpu time 2223.5718: real time 2233.4979

 eigenvalue-minimisations  :  1840
 total energy-change (2. order) : 0.4222363E-01  (-0.1527084E-01)
 number of electron     614.0000004 magnetization       0.6893144
 augmentation part       58.6315674 magnetization       0.6928622

 Free energy of the ion-electron system (eV)
  ---------------------------------------------------
  alpha Z        PSCENC =       630.52029633
  Ewald energy   TEWEN  =     -6243.44485430
  -Hartree energ DENC   =    -30432.28398810
  -exchange      EXHF   =      1748.86032570
  -V(xc)+E(xc)   XCENC  =      1314.07427405
  PAW double counting   =     27918.53138589   -27370.59838920
  entropy T*S    EENTRO =        -0.00000000
  eigenvalues    EBANDS =     -6476.56219306
  atomic energy  EATOM  =     37723.27950573
  Solvation  Ediel_sol  =         0.00000000
  ---------------------------------------------------
  free energy    TOTEN  =     -1187.62363696 eV

  energy without entropy =    -1187.62363696  energy(sigma->0) =    -1187.62363696
  exchange ACFDT corr.  =        -0.00000000  see jH, gK, PRB 81, 115126


[...]
      4.54846      7.94916     12.04333        -0.423805      0.108456     -0.066935
      2.32008      3.84962      2.34318         0.203638     -0.371525     -0.005670
     -2.09263      3.98134     12.29039         0.411048     -0.015944     -0.034185
      8.90419      7.96597      2.62684        -0.423246     -0.071810     -0.086372
      4.45607      7.58981      7.47061        -0.249973     -0.302385     -0.073731
     -2.10164     11.76095      7.02453         0.343670      0.322354      0.019998
     11.30371      3.99477      7.37316        -0.205603      0.402583      0.010238
      2.18524      4.13277      7.12686         0.270345      0.318612      0.123735
      9.07845      7.60724      7.48260         0.224919     -0.351539     -0.028391
      8.80868      0.08242      7.61511        -0.360276     -0.136206     -0.140406
     -0.06257      2.89819      1.91732         0.009194     -0.123291     -0.337545
      6.98267      8.78941     12.72119         0.280058      0.090591      0.322102
      4.41069     10.42084      1.73150         0.040313      0.020072     -0.202934
      2.35675      1.26761     12.87217        -0.025470     -0.000724      0.277081
     -4.53668     10.47386      1.94710        -0.025540      0.026567     -0.288649
     11.13225      1.44924     12.73200         0.147591     -0.052246      0.330639
      6.77564      6.52019      7.01276        -0.003234     -0.016629     -0.365738
      6.72243      1.04394      2.59315        -0.279825      0.143311      0.371457
      4.23160      2.47883      6.92372         0.125034      0.136569     -0.394709
      9.25178      5.39402      2.92435        -0.122260     -0.038611      0.351748
      9.30665      2.44210      6.71672        -0.114901      0.125989     -0.211410
      4.33887      5.41354      2.93433         0.101650     -0.075286      0.290930
     -0.00277     10.61277     11.93897         0.020860     -0.042951     -0.380307
     -0.06566      5.06944      8.04170         0.010408      0.108384      0.160410
     -2.11695      6.57811     11.87100        -0.098274     -0.050710     -0.377544
      2.52233      9.32525      7.70460        -0.178277     -0.173014      0.386596
      2.45951      6.33588     11.84796        -0.082761      0.031837     -0.398596
     -2.56935      9.20129      8.08709        -0.042730     -0.347154      0.159435
     11.86156      3.09411     14.71039         0.162942     -0.307735     -0.002318
      8.63539      8.62401      0.08634        -0.170376      0.324365     -0.003568
      5.03954      8.46070      0.03413         0.160043      0.376787      0.269175
      1.68668      3.15206     14.65549        -0.149120     -0.353628      0.007520
     -3.21172     11.83136      0.07434        -0.399569     -0.007341     -0.009470
      5.08146      6.96958      4.97976         0.126112     -0.296864      0.010517
      8.28861      0.59925      5.05397        -0.027079      0.381410      0.267129
      5.27324      1.28967      4.81086        -0.019175      0.059670      0.002393
      8.50354      6.90520      4.99643        -0.132068     -0.267630      0.004492
     10.45921      4.10350      4.90526        -0.404244     -0.122635      0.028199
      3.31268      3.81126      4.78256         0.275210      0.068023      0.009719
     -1.60158     11.27066      9.86421         0.035889     -0.388606      0.287374
      2.05155      4.84537      9.68130        -0.323443      0.224761     -0.000921
     -2.03205      4.84170      9.84179         0.328873      0.253607     -0.030387
      1.72241     10.62793      9.87207        -0.137840     -0.150454      0.030021
      3.22980      7.80688      9.78920        -0.156409      0.003683     -0.035489
     -3.63059      7.52947      9.92265         0.376030      0.193365     -0.019882
      9.93863      0.09818     14.69785         0.417101     -0.061840      0.018073
     12.05480      2.71992      1.51455         0.021676      0.035075      0.026234
      8.48294      8.98158     13.27287        -0.090096     -0.045367     -0.058755
      5.22058      9.04231      1.51119        -0.059292      0.019221      0.013639
      1.51977      2.62060     13.12698         0.038366     -0.006019     -0.050796
      3.02113      0.02225      1.59322         0.021921     -0.047679      0.072650
      3.69990     11.83806     13.15010        -0.010389      0.011928      0.005147
     -3.68555     11.76272     13.28062         0.016478      0.031121     -0.055961
      3.69119     11.82766      1.48844        -0.090670     -0.052534      0.049038
      1.48231      2.77718      1.46451        -0.033511      0.053604      0.049574
     12.06398      2.69590     13.15498        -0.080248      0.019778     -0.052641
      8.34948      9.10616      1.61459         0.030015      0.010415      0.047466
      5.23421      6.52998      6.52247         0.021568      0.031538      0.059198
      5.25957      1.30005      6.43849        -0.069487     -0.042343      0.017312
      8.35652      6.64793      3.39167         0.060470      0.013827     -0.033872
      9.97537      3.86784      6.43122         0.037499     -0.046675      0.068609
      3.68703      3.96395      3.20629        -0.026215      0.033322     -0.042218
      9.89937      3.96460      3.36525         0.010007      0.008514     -0.032530
      3.60426      3.84955      6.37451        -0.024221     -0.057662      0.059731
      5.24946      1.33223      3.20361         0.161410     -0.052038     -0.000730
      8.33042      6.51357      6.55180        -0.018521      0.037462      0.078343
      5.23144      6.68373      3.38247        -0.066387      0.027123     -0.031064
      8.27644      1.19239      6.53825         0.056440     -0.036390      0.021212
     -1.53085     10.69781     11.35029         0.024163      0.047344     -0.018252
      1.54134      5.17047      8.17436        -0.017657     -0.044782     -0.043668
     -1.52716      5.16580     11.35970        -0.055227     -0.012404      0.029884
      1.53890     10.51722      8.26368        -0.068615      0.041075     -0.032019
      3.07468      7.77667     11.40819         0.119237      0.018001      0.096157
     -3.24529      7.80088      8.35248        -0.006999      0.058664     -0.038301
      3.04539      7.87877      8.19361         0.045710      0.033456     -0.011716
     -3.02428      7.84304     11.41762        -0.013340     -0.051632      0.040630
     -1.66329      5.10776      8.28922        -0.025155     -0.028802     -0.015642
      1.53844     10.44827     11.46583         0.007200      0.040143      0.009185
      1.67763      5.04462     11.26356         0.029126     -0.000205      0.037026
      5.31289      9.05370     13.20270         0.006658     -0.053256     -0.059869
      8.30270      1.15400      3.42085        -0.037238     -0.061821     -0.038219
     -1.62541     10.65113      8.24065         0.017866      0.002036     -0.035377
      7.51445      0.26153      0.55719        -0.006395     -0.014039      0.004452
     -0.22999      7.94627      7.09726         0.001983      0.009305     -0.032374
      6.38902      6.77697     11.38638        -0.048456      0.138667      0.065215
      7.52443      4.88450     10.46752         0.251190      0.121903     -0.459597
      8.68706      5.52742     10.18718        -0.278080     -0.157320      0.086185
      7.10796      4.96812      9.17917         0.067662     -0.046968      0.303773
 -----------------------------------------------------------------------------------
    total drift:                                0.000185     -0.001863      0.001090


--------------------------------------------------------------------------------------------------------



  FREE ENERGIE OF THE ION-ELECTRON SYSTEM (eV)
  ---------------------------------------------------
  free  energy   TOTEN  =     -1187.76831587 eV

  energy  without entropy=    -1187.76831587  energy(sigma->0) =    -1187.76831587
 


--------------------------------------------------------------------------------------------------------


    POTLOK:  cpu time    2.5617: real time    2.5684


--------------------------------------------------------------------------------------------------------


 stress matrix after NEB project (eV)
      0.00000      0.00000      0.00000
      0.00000      0.00000      0.00000
      0.00000      0.00000      0.00000
  FORCES: max atom, RMS     0.537761    0.313301
  FORCE total and by dimension    3.345142    0.459597
  Stress total and by dimension    0.000000    0.000000
     LOOP+:  cpu time66556.4575: real time66816.8568
    4ORBIT:  cpu time    0.0000: real time    0.0000
 


 total charge     
 
# of ion       s       p       d       tot
------------------------------------------
    1        1.578   3.722   0.000   5.299
    2        1.577   3.727   0.000   5.304
    3        1.579   3.731   0.000   5.311
    4        1.577   3.721   0.000   5.299
    5        1.577   3.728   0.000   5.305
    6        1.579   3.690   0.000   5.269
    7        1.579   3.733   0.000   5.312
    8        1.580   3.694   0.000   5.274
    9        1.581   3.694   0.000   5.276
   10        1.578   3.720   0.000   5.298
   11        1.579   3.720   0.000   5.299
   12        1.581   3.713   0.000   5.294
   13        1.574   3.741   0.000   5.315
   14        1.578   3.684   0.000   5.262
   15        1.575   3.748   0.000   5.323
   16        1.579   3.663   0.000   5.242
   17        1.579   3.711   0.000   5.290
   18        1.579   3.688   0.000   5.267
   19        1.578   3.733   0.000   5.311
   20        1.580   3.729   0.000   5.309
   21        1.582   3.724   0.000   5.306
   22        1.579   3.724   0.000   5.303
   23        1.582   3.726   0.000   5.308
   24        1.580   3.725   0.000   5.305
   25        1.579   3.728   0.000   5.307
   26        1.583   3.687   0.000   5.270
   27        1.578   3.678   0.000   5.256
   28        1.580   3.727   0.000   5.307
   29        1.581   3.734   0.000   5.314
   30        1.581   3.725   0.000   5.305
   31        1.580   3.733   0.000   5.313
   32        1.583   3.692   0.000   5.275
   33        1.582   3.724   0.000   5.306
   34        1.581   3.725   0.000   5.305
   35        1.581   3.728   0.000   5.309
   36        1.581   3.723   0.000   5.304
   37        1.578   3.736   0.000   5.314
   38        1.580   3.676   0.000   5.256
   39        1.576   3.757   0.000   5.333
   40        1.575   3.744   0.000   5.320
   41        1.577   3.749   0.000   5.326
   42        1.578   3.732   0.000   5.310
   43        1.579   3.734   0.000   5.313
   44        1.578   3.663   0.000   5.242
   45        1.582   3.724   0.000   5.306
   46        1.579   3.731   0.000   5.309
   47        1.575   3.744   0.000   5.320
   48        1.577   3.741   0.000   5.318
   49        1.579   3.719   0.000   5.298
   50        1.574   3.748   0.000   5.322
   51        1.580   3.732   0.000   5.312
   52        1.582   3.714   0.000   5.296
   53        1.580   3.724   0.000   5.303
   54        1.580   3.702   0.000   5.282
   55        1.579   3.730   0.000   5.309
   56        1.579   3.721   0.000   5.300
   57        1.584   3.681   0.000   5.265
   58        1.578   3.718   0.000   5.297
   59        1.580   3.713   0.000   5.293
   60        1.578   3.733   0.000   5.311
   61        1.582   3.684   0.000   5.266
   62        1.573   3.750   0.000   5.323
   63        1.576   3.732   0.000   5.308
   64        1.581   3.714   0.000   5.295
   65        1.576   3.733   0.000   5.309
   66        1.582   3.679   0.000   5.261
   67        1.578   3.716   0.000   5.294
   68        1.581   3.722   0.000   5.303
   69        1.574   3.743   0.000   5.318
   70        1.575   3.748   0.000   5.322
   71        1.580   3.705   0.000   5.286
   72        1.580   3.684   0.000   5.264
   73        0.637   0.995   0.000   1.632
   74        0.642   0.995   0.000   1.637
   75        0.644   1.007   0.000   1.651
   76        0.635   0.987   0.000   1.622
   77        0.639   0.998   0.000   1.637
   78        0.643   0.995   0.000   1.638
   79        0.636   0.992   0.000   1.628
   80        0.643   1.001   0.000   1.644
   81        0.636   0.990   0.000   1.626
   82        0.638   0.995   0.000   1.633
   83        0.639   0.999   0.000   1.637
   84        0.640   1.004   0.000   1.644
   85        0.643   0.996   0.000   1.638
   86        0.637   0.991   0.000   1.628
   87        0.639   0.995   0.000   1.634
   88        0.637   0.993   0.000   1.631
   89        0.641   0.998   0.000   1.639
   90        0.640   0.998   0.000   1.637
   91        0.644   1.000   0.000   1.644
   92        0.640   0.998   0.000   1.638
   93        0.638   0.994   0.000   1.632
   94        0.642   0.993   0.000   1.635
   95        0.640   0.992   0.000   1.633
   96        0.637   0.986   0.000   1.623
   97        0.640   1.003   0.000   1.643
   98        0.643   0.996   0.000   1.639
   99        0.641   0.994   0.000   1.635
  100        0.644   0.998   0.000   1.642
  101        0.640   0.994   0.000   1.634
  102        0.639   0.998   0.000   1.637
  103        0.641   0.997   0.000   1.637
  104        0.637   0.991   0.000   1.629
  105        0.636   0.991   0.000   1.627
  106        0.350   0.467   0.000   0.817
  107        0.350   0.469   0.000   0.819
  108        0.348   0.467   0.000   0.816
  109        0.087   0.059   9.259   9.406
  110        0.101   0.075   9.258   9.434
  111        0.209   0.121   9.162   9.492
  112        1.328   2.442   0.000   3.769
  113        0.545   0.036   0.000   0.581
  114        0.545   0.036   0.000   0.580
--------------------------------------------------
tot        138.658 304.794  27.679 471.130
 


 magnetization (x)
 
# of ion       s       p       d       tot
------------------------------------------
    1        0.000   0.000   0.000   0.000
    2       -0.000  -0.000   0.000  -0.000
    3        0.000   0.000   0.000   0.000
    4       -0.000  -0.000   0.000  -0.000
    5        0.000   0.000   0.000   0.000
    6       -0.000  -0.000   0.000  -0.000
    7       -0.000   0.000   0.000   0.000
    8        0.000   0.000   0.000   0.000
    9        0.000  -0.000   0.000   0.000
   10        0.000   0.000   0.000   0.000
   11       -0.000  -0.000   0.000  -0.000
   12        0.000   0.000   0.000   0.000
   13       -0.000  -0.000   0.000  -0.000
   14        0.000  -0.000   0.000  -0.000
   15        0.000  -0.000   0.000  -0.000
   16       -0.000  -0.000   0.000  -0.000
   17       -0.000  -0.000   0.000  -0.000
   18        0.000  -0.000   0.000  -0.000
   19        0.000   0.000   0.000   0.000
   20       -0.000  -0.000   0.000  -0.000
   21        0.000   0.000   0.000   0.000
   22        0.000  -0.000   0.000  -0.000
   23        0.000   0.000   0.000   0.000
   24       -0.000  -0.000   0.000  -0.000
   25       -0.000  -0.000   0.000  -0.000
   26        0.000   0.000   0.000   0.000
   27       -0.000  -0.000   0.000  -0.000
   28        0.000   0.000   0.000   0.000
   29        0.000  -0.000   0.000  -0.000
   30        0.000   0.000   0.000   0.000
   31       -0.000  -0.000   0.000  -0.000
   32       -0.000  -0.000   0.000  -0.000
   33       -0.000  -0.000   0.000  -0.000
   34       -0.000  -0.000   0.000  -0.000
   35        0.000  -0.000   0.000  -0.000
   36       -0.000  -0.000   0.000  -0.000
   37        0.000   0.000   0.000   0.000
   38       -0.000  -0.000   0.000  -0.000
   39        0.000   0.000   0.000   0.000
   40       -0.000  -0.000   0.000  -0.000
   41        0.000   0.000   0.000   0.000
   42       -0.000  -0.000   0.000  -0.000
   43       -0.000   0.000   0.000   0.000
   44        0.000   0.000   0.000   0.000
   45        0.000  -0.000   0.000  -0.000
   46        0.000   0.000   0.000   0.000
   47        0.000  -0.000   0.000  -0.000
   48        0.000   0.000   0.000   0.000
   49       -0.000  -0.000   0.000  -0.000
   50        0.000  -0.000   0.000  -0.000
   51       -0.000  -0.000   0.000  -0.000
   52       -0.000  -0.000   0.000  -0.000
   53        0.000  -0.000   0.000  -0.000
   54       -0.000  -0.000   0.000  -0.000
   55        0.000   0.000   0.000   0.000
   56        0.000   0.000   0.000   0.000
   57        0.000   0.000   0.000   0.000
   58        0.000   0.000   0.000   0.000
   59        0.000   0.000   0.000   0.000
   60        0.000   0.000   0.000   0.000
   61        0.000   0.000   0.000   0.000
   62        0.000   0.000   0.000   0.000
   63        0.000   0.000   0.000   0.000
   64        0.000   0.000   0.000   0.000
   65        0.000   0.000   0.000   0.000
   66       -0.000  -0.000   0.000  -0.000
   67       -0.000  -0.000   0.000  -0.000
   68       -0.000  -0.000   0.000  -0.000
   69       -0.000  -0.000   0.000  -0.000
   70        0.000  -0.000   0.000  -0.000
   71       -0.000  -0.000   0.000  -0.000
   72        0.000   0.000   0.000   0.000
   73       -0.000  -0.000   0.000  -0.000
   74        0.000   0.000   0.000   0.000
   75       -0.000  -0.000   0.000  -0.000
   76        0.000   0.000   0.000   0.000
   77       -0.000  -0.000   0.000  -0.000
   78        0.000  -0.000   0.000  -0.000
   79        0.000   0.000   0.000   0.000
   80       -0.000  -0.000   0.000  -0.000
   81       -0.000  -0.000   0.000  -0.000
   82        0.000   0.000   0.000   0.000
   83       -0.000  -0.000   0.000  -0.000
   84       -0.000  -0.000   0.000  -0.000
   85       -0.000  -0.000   0.000  -0.000
   86       -0.000  -0.000   0.000  -0.000
   87       -0.000  -0.000   0.000  -0.000
   88       -0.000  -0.000   0.000  -0.000
   89       -0.000  -0.000   0.000  -0.000
   90        0.000  -0.000   0.000  -0.000
   91       -0.000  -0.000   0.000  -0.000
   92        0.000   0.000   0.000   0.000
   93       -0.000  -0.000   0.000  -0.000
   94       -0.000  -0.000   0.000  -0.000
   95        0.000   0.000   0.000   0.000
   96        0.000   0.000   0.000   0.000
   97        0.000   0.000   0.000   0.000
   98        0.000   0.000   0.000   0.000
   99        0.000   0.000   0.000   0.000
  100        0.000   0.000   0.000   0.000
  101        0.000   0.000   0.000   0.000
  102        0.000   0.000   0.000   0.000
  103        0.000   0.000   0.000   0.000
  104        0.000   0.000   0.000   0.000
  105        0.000   0.000   0.000   0.000
  106       -0.000  -0.000   0.000  -0.000
  107       -0.000  -0.000   0.000  -0.000
  108        0.000   0.000   0.000   0.000
  109       -0.000  -0.000   0.000   0.000
  110       -0.000   0.000   0.000   0.000
  111        0.000   0.000   0.000   0.000
  112       -0.000  -0.000   0.000  -0.000
  113       -0.000  -0.000   0.000  -0.000
  114       -0.000  -0.000   0.000  -0.000
--------------------------------------------------
tot         -0.000   0.000   0.000   0.000
 

 total amount of memory used by VASP MPI-rank0   233646. kBytes
=======================================================================

   base      :      30000. kBytes
   nonlr-proj:      31830. kBytes
   fftplans  :      69849. kBytes
   grid      :      62827. kBytes
   one-center:        902. kBytes
   HF        :        259. kBytes
   wavefun   :      37979. kBytes
 
  
  
 General timing and accounting informations for this job:
 ========================================================
  
                  Total CPU time used (sec):    66579.930
                            User time (sec):    60353.612
                          System time (sec):     6226.318
                         Elapsed time (sec):    66841.149
  
                   Maximum memory used (kb):      461424.
                   Average memory used (kb):           0.
  
                          Minor page faults:      3965382
                          Major page faults:            4
                 Voluntary context switches:         1294
