 vasp.5.4.4.18Apr17-6-g9f103f2a35 (build Dec 31 2018 11:41:54) complex          
  
 executed on             LinuxIFC date 2022.04.26  16:30:32
 running on   16 total cores
 distrk:  each k-point on   16 cores,    1 groups
 distr:  one band on NCORES_PER_BAND=   4 cores,    4 groups


--------------------------------------------------------------------------------------------------------


 INCAR:
 POTCAR:   PAW_PBE O 08Apr2002                    
 POTCAR:   PAW_PBE Si 05Jan2001                   
 POTCAR:   PAW_PBE Al 04Jan2001                   
 POTCAR:   PAW_PBE Ag 06Sep2000                   
 POTCAR:   PAW_PBE O 08Apr2002                    
   VRHFIN =O: s2p4                                                              
   LEXCH  = PE                                                                  
   EATOM  =   432.3788 eV,   31.7789 Ry                                         
                                                                                
   TITEL  = PAW_PBE O 08Apr2002                                                 
   LULTRA =        F    use ultrasoft PP ?                                      
   IUNSCR =        0    unscreen: 0-lin 1-nonlin 2-no                           
   RPACOR =     .000    partial core radius                                     
   POMASS =   16.000; ZVAL   =    6.000    mass and valenz                      
   RCORE  =    1.520    outmost cutoff radius                                   
   RWIGS  =    1.550; RWIGS  =     .820    wigner-seitz radius (au A)           
   ENMAX  =  400.000; ENMIN  =  300.000 eV                                      
   ICORE  =        2    local potential                                         
   LCOR   =        T    correct aug charges                                     
   LPAW   =        T    paw PP                                                  
   EAUG   =  605.392                                                            
   DEXC   =     .000                                                            
   RMAX   =    2.264    core radius for proj-oper                               
   RAUG   =    1.300    factor for augmentation sphere                          
   RDEP   =    1.550    radius for radial grids                                 
   QCUT   =   -5.520; QGAM   =   11.041    optimization parameters              
                                                                                
   Description                                                                  
     l     E      TYP  RCUT    TYP  RCUT                                        
     0   .000     23  1.200                                                     
     0  -.700     23  1.200                                                     
     1   .000     23  1.520                                                     
     1   .600     23  1.520                                                     
     2   .000      7  1.500                                                     
  local pseudopotential read in
  atomic valenz-charges read in
  non local Contribution for L=           0  read in
    real space projection operators read in
  non local Contribution for L=           0  read in
    real space projection operators read in
  non local Contribution for L=           1  read in
    real space projection operators read in
  non local Contribution for L=           1  read in
    real space projection operators read in
    PAW grid and wavefunctions read in
 
   number of l-projection  operators is LMAX  =           4
   number of lm-projection operators is LMMAX =           8
 
 POTCAR:   PAW_PBE Si 05Jan2001                   
   VRHFIN =Si: s2p2                                                             
   LEXCH  = PE                                                                  
   EATOM  =   103.0669 eV,    7.5752 Ry                                         
                                                                                
   TITEL  = PAW_PBE Si 05Jan2001                                                
   LULTRA =        F    use ultrasoft PP ?                                      
   IUNSCR =        1    unscreen: 0-lin 1-nonlin 2-no                           
   RPACOR =    1.500    partial core radius                                     
   POMASS =   28.085; ZVAL   =    4.000    mass and valenz                      
   RCORE  =    1.900    outmost cutoff radius                                   
   RWIGS  =    2.480; RWIGS  =    1.312    wigner-seitz radius (au A)           
   ENMAX  =  245.345; ENMIN  =  184.009 eV                                      
   ICORE  =        2    local potential                                         
   LCOR   =        T    correct aug charges                                     
   LPAW   =        T    paw PP                                                  
   EAUG   =  322.069                                                            
   DEXC   =    -.007                                                            
   RMAX   =    2.944    core radius for proj-oper                               
   RAUG   =    1.300    factor for augmentation sphere                          
   RDEP   =    1.993    radius for radial grids                                 
   QCUT   =   -4.246; QGAM   =    8.493    optimization parameters              
                                                                                
   Description                                                                  
     l     E      TYP  RCUT    TYP  RCUT                                        
     0   .000     23  1.900                                                     
     0   .000     23  1.900                                                     
     1   .000     23  1.900                                                     
     1   .000     23  1.900                                                     
     2   .000      7  1.900                                                     
  local pseudopotential read in
  partial core-charges read in
  atomic valenz-charges read in
  non local Contribution for L=           0  read in
    real space projection operators read in
  non local Contribution for L=           0  read in
    real space projection operators read in
  non local Contribution for L=           1  read in
    real space projection operators read in
  non local Contribution for L=           1  read in
    real space projection operators read in
    PAW grid and wavefunctions read in
 
   number of l-projection  operators is LMAX  =           4
   number of lm-projection operators is LMMAX =           8
 
 POTCAR:   PAW_PBE Al 04Jan2001                   
   VRHFIN =Al: s2p1                                                             
   LEXCH  = PE                                                                  
   EATOM  =    53.5387 eV,    3.9350 Ry                                         
                                                                                
   TITEL  = PAW_PBE Al 04Jan2001                                                
   LULTRA =        F    use ultrasoft PP ?                                      
   IUNSCR =        1    unscreen: 0-lin 1-nonlin 2-no                           
   RPACOR =    1.500    partial core radius                                     
   POMASS =   26.982; ZVAL   =    3.000    mass and valenz                      
   RCORE  =    1.900    outmost cutoff radius                                   
   RWIGS  =    2.650; RWIGS  =    1.402    wigner-seitz radius (au A)           
   ENMAX  =  240.300; ENMIN  =  180.225 eV                                      
   ICORE  =        2    local potential                                         
   LCOR   =        T    correct aug charges                                     
   LPAW   =        T    paw PP                                                  
   EAUG   =  291.052                                                            
   DEXC   =    -.041                                                            
   RMAX   =    2.974    core radius for proj-oper                               
   RAUG   =    1.300    factor for augmentation sphere                          
   RDEP   =    1.966    radius for radial grids                                 
   QCUT   =   -4.203; QGAM   =    8.405    optimization parameters              
                                                                                
   Description                                                                  
     l     E      TYP  RCUT    TYP  RCUT                                        
     0   .000     23  1.900                                                     
     0   .000     23  1.900                                                     
     1   .000     23  1.900                                                     
     1  1.000     23  1.900                                                     
     2   .000      7  1.900                                                     
  local pseudopotential read in
  partial core-charges read in
  atomic valenz-charges read in
  non local Contribution for L=           0  read in
    real space projection operators read in
  non local Contribution for L=           0  read in
    real space projection operators read in
  non local Contribution for L=           1  read in
    real space projection operators read in
  non local Contribution for L=           1  read in
    real space projection operators read in
    PAW grid and wavefunctions read in
 
   number of l-projection  operators is LMAX  =           4
   number of lm-projection operators is LMMAX =           8
 
 POTCAR:   PAW_PBE Ag 06Sep2000                   
   VRHFIN =Ag : s1 d10                                                          
   LEXCH  = PE                                                                  
   EATOM  =  1037.4134 eV,   76.2477 Ry                                         
                                                                                
   TITEL  = PAW_PBE Ag 06Sep2000                                                
   LULTRA =        F    use ultrasoft PP ?                                      
   IUNSCR =        1    unscreen: 0-lin 1-nonlin 2-no                           
   RPACOR =    2.000    partial core radius                                     
   POMASS =  107.868; ZVAL   =   11.000    mass and valenz                      
   RCORE  =    2.400    outmost cutoff radius                                   
   RWIGS  =    2.840; RWIGS  =    1.503    wigner-seitz radius (au A)           
   ENMAX  =  249.846; ENMIN  =  187.385 eV                                      
   RCLOC  =    1.962    cutoff for local pot                                    
   LCOR   =        T    correct aug charges                                     
   LPAW   =        T    paw PP                                                  
   EAUG   =  412.496                                                            
   DEXC   =    -.047                                                            
   RMAX   =    2.917    core radius for proj-oper                               
   RAUG   =    1.300    factor for augmentation sphere                          
   RDEP   =    2.416    radius for radial grids                                 
   QCUT   =   -4.285; QGAM   =    8.570    optimization parameters              
                                                                                
   Description                                                                  
     l     E      TYP  RCUT    TYP  RCUT                                        
     2   .000     23  2.400                                                     
     2   .000     23  2.400                                                     
     0   .000     23  2.400                                                     
     0   .000     23  2.400                                                     
     1  -.200     23  2.400                                                     
     1  1.500     23  2.400                                                     
     3   .000      7   .000                                                     
  local pseudopotential read in
  partial core-charges read in
  atomic valenz-charges read in
  non local Contribution for L=           2  read in
    real space projection operators read in
  non local Contribution for L=           2  read in
    real space projection operators read in
  non local Contribution for L=           0  read in
    real space projection operators read in
  non local Contribution for L=           0  read in
    real space projection operators read in
  non local Contribution for L=           1  read in
    real space projection operators read in
  non local Contribution for L=           1  read in
    real space projection operators read in
    PAW grid and wavefunctions read in
 
   number of l-projection  operators is LMAX  =           6
   number of lm-projection operators is LMMAX =          18
 
 Optimization of the real space projectors (new method)

 maximal supplied QI-value         = 24.76
 optimisation between [QCUT,QGAM] = [ 10.15, 20.30] = [ 28.85,115.39] Ry 
 Optimized for a Real-space Cutoff    1.51 Angstroem

   l    n(q)    QCUT    max X(q) W(low)/X(q) W(high)/X(q)  e(spline) 
   0      9    10.150     4.192    0.32E-04    0.13E-04    0.13E-06
   0      9    10.150     8.473    0.18E-03    0.20E-03    0.43E-06
   1      9    10.150     2.474    0.32E-04    0.33E-04    0.64E-07
   1      9    10.150     3.912    0.13E-03    0.16E-03    0.33E-06
 Optimization of the real space projectors (new method)

 maximal supplied QI-value         = 19.84
 optimisation between [QCUT,QGAM] = [ 10.12, 20.44] = [ 28.68,116.96] Ry 
 Optimized for a Real-space Cutoff    1.38 Angstroem

   l    n(q)    QCUT    max X(q) W(low)/X(q) W(high)/X(q)  e(spline) 
   0      8    10.119     8.708    0.16E-04    0.67E-05    0.60E-08
   0      8    10.119   106.241    0.56E-04    0.11E-03    0.54E-07
   1      8    10.119     5.901    0.16E-04    0.16E-05    0.22E-07
   1      8    10.119    73.241    0.22E-03    0.17E-03    0.18E-06
 Optimization of the real space projectors (new method)

 maximal supplied QI-value         = 19.84
 optimisation between [QCUT,QGAM] = [ 10.12, 20.44] = [ 28.68,116.96] Ry 
 Optimized for a Real-space Cutoff    1.26 Angstroem

   l    n(q)    QCUT    max X(q) W(low)/X(q) W(high)/X(q)  e(spline) 
   0      8    10.119    13.410    0.28E-04    0.17E-04    0.51E-08
   0      8    10.119   140.052    0.10E-03    0.16E-03    0.42E-07
   1      7    10.119     9.624    0.38E-04    0.42E-05    0.15E-07
   1      7    10.119    53.353    0.23E-03    0.17E-03    0.13E-06
 Optimization of the real space projectors (new method)

 maximal supplied QI-value         = 15.68
 optimisation between [QCUT,QGAM] = [ 10.20, 20.39] = [ 29.11,116.42] Ry 
 Optimized for a Real-space Cutoff    1.51 Angstroem

   l    n(q)    QCUT    max X(q) W(low)/X(q) W(high)/X(q)  e(spline) 
   2      8    10.195     3.831    0.11E-04    0.20E-04    0.48E-07
   2      8    10.195    20.184    0.23E-03    0.42E-03    0.20E-06
   0      9    10.195    16.770    0.13E-04    0.90E-05    0.63E-08
   0      9    10.195    80.708    0.19E-03    0.15E-03    0.44E-07
   1      9    10.195     6.696    0.12E-04    0.45E-04    0.30E-07
   1      9    10.195     8.973    0.12E-03    0.15E-03    0.13E-06
 PAW_PBE O 08Apr2002                    :
 energy of atom  1       EATOM= -432.3788
 kinetic energy error for atom=    0.1156 (will be added to EATOM!!)
 PAW_PBE Si 05Jan2001                   :
 energy of atom  2       EATOM= -103.0669
 kinetic energy error for atom=    0.0012 (will be added to EATOM!!)
 PAW_PBE Al 04Jan2001                   :
 energy of atom  3       EATOM=  -53.5387
 kinetic energy error for atom=    0.0005 (will be added to EATOM!!)
 PAW_PBE Ag 06Sep2000                   :
 energy of atom  4       EATOM=-1037.4134
 kinetic energy error for atom=    0.0091 (will be added to EATOM!!)
 
 
 POSCAR: O  C                                    
  positions in direct lattice
  velocities in cartesian coordinates
 exchange correlation table for  LEXCH =        8
   RHO(1)=    0.500       N(1)  =     2000
   RHO(2)=  100.500       N(2)  =     4000

 VTST: version 3.2, (02/03/18)

 CHAIN: initializing optimizer
 
 OPT: Using VASP Quick-Min optimizer
 CHAIN: Read ICHAIN            1
 
 POSCAR: O  C                                    
  positions in direct lattice
  velocities in cartesian coordinates
 CHAIN: Running the Dynamical Matrix
 


--------------------------------------------------------------------------------------------------------


 ion  position               nearest neighbor table
   1  0.896  0.095  0.120-  74 1.63  81 1.63
   2  0.101  0.887  0.880-  75 1.62  80 1.63
   3  0.891  0.792  0.130-  84 1.62  76 1.64
   4  0.093  0.194  0.867-  77 1.63  83 1.63
   5  0.193  0.101  0.117-  78 1.63  82 1.63
   6  0.799  0.901  0.883-  79 1.60 107 1.72
   7  0.552  0.424  0.458-  85 1.62  91 1.63
   8  0.761  0.232  0.220-  90 1.59 108 1.73
   9  0.564  0.140  0.471-  95 1.64  86 1.64
  10  0.764  0.536  0.204-  94 1.63  87 1.63
  11  0.863  0.424  0.461-  93 1.62  88 1.63
  12  0.462  0.234  0.184-  89 1.63  92 1.64
  13  0.229  0.772  0.777- 103 1.61  96 1.64
  14  0.423  0.568  0.525- 102 1.66  97 1.66 111 2.56
  15  0.231  0.450  0.775- 106 1.62  98 1.62
  16  0.427  0.849  0.532-  99 1.62 109 1.79 111 2.28
  17  0.531  0.755  0.806- 100 1.63 105 1.64
  18  0.121  0.557  0.534- 104 1.65 101 1.68 111 2.45
  19  0.974  0.314  0.161-  74 1.61  90 1.63
  20  0.019  0.667  0.842- 103 1.62  75 1.62
  21  0.675  0.671  0.175-  94 1.61  76 1.63
  22  0.311  0.315  0.819- 106 1.62  77 1.63
  23  0.316  0.013  0.178-  78 1.61  92 1.63
  24  0.661  0.978  0.828- 105 1.62  79 1.63
  25  0.321  0.982  0.839-  80 1.61  96 1.63
  26  0.675  0.003  0.163-  81 1.60 108 1.74 110 2.54
  27  0.671  0.672  0.813- 100 1.63 107 1.78 112 2.23
  28  0.329  0.321  0.159-  82 1.62  89 1.62
  29  0.016  0.334  0.833-  98 1.61  83 1.62
  30  0.984  0.668  0.173-  84 1.62  87 1.62
  31  0.645  0.640  0.503- 102 1.61  85 1.62
  32  0.340  0.991  0.476-  86 1.59 109 1.71
  33  0.992  0.335  0.499- 104 1.60  88 1.63
  34  0.334  0.348  0.482-  97 1.61  91 1.63
  35  0.985  0.642  0.504- 101 1.62  93 1.62
  36  0.647  0.006  0.516-  99 1.61  95 1.64
  37  0.115  0.241  0.129-  82 1.61  74 1.62
  38  0.882  0.746  0.854-  75 1.64 107 1.78 112 2.27
  39  0.758  0.876  0.112-  81 1.60  76 1.61
  40  0.226  0.106  0.870-  77 1.61  80 1.62
  41  0.109  0.880  0.129-  78 1.61  84 1.61
  42  0.874  0.120  0.859-  83 1.62  79 1.62
  43  0.772  0.554  0.470-  85 1.61  93 1.62
  44  0.533  0.085  0.176-  92 1.62 108 1.79 110 2.31
  45  0.412  0.207  0.468-  91 1.60  86 1.64
  46  0.901  0.452  0.198-  87 1.61  90 1.63
  47  0.781  0.205  0.453-  88 1.60  95 1.63
  48  0.544  0.454  0.195-  89 1.61  94 1.62
  49  0.445  0.891  0.808- 105 1.62  96 1.64
  50  0.208  0.427  0.540-  97 1.61 104 1.62
  51  0.118  0.552  0.802-  98 1.61 103 1.62
  52  0.578  0.786  0.521- 102 1.61  99 1.64
  53  0.450  0.533  0.801- 100 1.62 106 1.62
  54  0.200  0.774  0.544- 101 1.58 109 1.74 111 2.77
  55  0.994  0.255  0.995-  83 1.62  74 1.63
  56  0.986  0.728  0.003-  75 1.62  84 1.63
  57  0.730  0.710  0.002-  76 1.60 107 1.72
  58  0.254  0.263  0.992-  77 1.63  82 1.63
  59  0.265  0.998  0.004-  80 1.63  78 1.64
  60  0.659  0.584  0.335-  85 1.61  94 1.63
  61  0.629  0.047  0.342-  95 1.60 108 1.72
  62  0.437  0.105  0.326-  92 1.61  86 1.63
  63  0.915  0.584  0.336-  93 1.62  87 1.63
  64  0.937  0.342  0.331-  88 1.62  90 1.64
  65  0.404  0.322  0.323-  91 1.62  89 1.63
  66  0.355  0.946  0.668-  96 1.59 109 1.74
  67  0.350  0.408  0.655-  97 1.62 106 1.64
  68  0.058  0.404  0.666- 104 1.61  98 1.63
  69  0.573  0.894  0.668- 105 1.61  99 1.62
  70  0.568  0.658  0.661- 102 1.61 100 1.62
  71  0.052  0.640  0.671- 103 1.63 101 1.63
  72  0.730  0.011  0.995-  79 1.66  81 1.67 110 2.50
  73  0.792  0.511  0.662- 112 1.96
  74  0.994  0.226  0.102-  19 1.61  37 1.62  55 1.63   1 1.63  90 3.10  82 3.10  81 3.12  83 3.14

  75  0.999  0.759  0.896-  56 1.62  20 1.62   2 1.62  38 1.64 103 3.06  84 3.13 107 3.17
  76  0.763  0.761  0.102-  57 1.60  39 1.61  21 1.63   3 1.64  94 3.00 107 3.07  84 3.09
  77  0.221  0.219  0.888-  40 1.61  58 1.63  22 1.63   4 1.63 106 3.07  82 3.11  83 3.13
  78  0.220  0.999  0.107-  41 1.61  23 1.61   5 1.63  59 1.64  92 3.04  80 3.08
  79  0.768  0.999  0.890-   6 1.60  42 1.62  24 1.63  72 1.66 105 3.07  83 3.09  81 3.10 107 3.23

  80  0.228  0.993  0.898-  25 1.61  40 1.62   2 1.63  59 1.63  96 3.08  78 3.08
  81  0.767  0.996  0.100-  26 1.60  39 1.60   1 1.63  72 1.67  79 3.10  74 3.12 108 3.16 110 3.17

  82  0.223  0.231  0.099-  37 1.61  28 1.62   5 1.63  58 1.63  89 3.05  74 3.10  77 3.11
  83  0.995  0.225  0.890-  42 1.62  55 1.62  29 1.62   4 1.63  98 3.06  79 3.09  77 3.13  74 3.14

  84  0.992  0.767  0.108-  41 1.61   3 1.62  30 1.62  56 1.63  87 3.03  76 3.09  75 3.13
  85  0.657  0.550  0.440-  43 1.61  60 1.61   7 1.62  31 1.62 102 3.06  93 3.11  91 3.12  94 3.14

  86  0.437  0.107  0.436-  32 1.59  62 1.63  45 1.64   9 1.64  95 3.02  91 3.04 109 3.07
  87  0.890  0.559  0.228-  46 1.61  30 1.62  63 1.63  10 1.63  84 3.03  90 3.11  94 3.14  93 3.15

  88  0.891  0.325  0.434-  47 1.60  64 1.62  11 1.63  33 1.63 104 3.03  90 3.06  93 3.12
  89  0.435  0.332  0.216-  48 1.61  28 1.62  65 1.63  12 1.63  82 3.05  92 3.06  94 3.12
  90  0.889  0.331  0.227-   8 1.59  19 1.63  46 1.63  64 1.64  88 3.06  74 3.10  87 3.11 108 3.23

  91  0.426  0.324  0.431-  45 1.60  65 1.62   7 1.63  34 1.63  86 3.04  97 3.05  85 3.12
  92  0.438  0.109  0.217-  62 1.61  44 1.62  23 1.63  12 1.64  78 3.04  89 3.06 108 3.07
  93  0.884  0.550  0.441-  43 1.62  35 1.62  11 1.62  63 1.62 101 3.05  85 3.11  88 3.12  87 3.15

  94  0.662  0.561  0.227-  21 1.61  48 1.62  60 1.63  10 1.63  76 3.00  89 3.12  87 3.14  85 3.14

  95  0.654  0.099  0.442-  61 1.60  47 1.63  36 1.64   9 1.64  86 3.02  99 3.04 108 3.11
  96  0.337  0.899  0.769-  66 1.59  25 1.63  13 1.64  49 1.64  80 3.08 105 3.08 109 3.13
  97  0.329  0.435  0.552-  34 1.61  50 1.61  67 1.62  14 1.66  91 3.05 102 3.11 106 3.11
  98  0.106  0.435  0.769-  29 1.61  51 1.61  15 1.62  68 1.63  83 3.06 103 3.08 104 3.09
  99  0.556  0.887  0.559-  36 1.61  16 1.62  69 1.62  52 1.64 102 3.04  95 3.04 109 3.17 111 3.35

 100  0.553  0.655  0.770-  70 1.62  53 1.62  17 1.63  27 1.63 106 3.07 105 3.08 107 3.15
 101  0.090  0.657  0.564-  54 1.58  35 1.62  71 1.63  18 1.68  93 3.05 103 3.08 104 3.14 111 3.25

 102  0.554  0.664  0.553-  31 1.61  52 1.61  70 1.61  14 1.66  99 3.04  85 3.06  97 3.11
 103  0.107  0.660  0.772-  13 1.61  51 1.62  20 1.62  71 1.63  75 3.06 101 3.08  98 3.08
 104  0.092  0.428  0.560-  33 1.60  68 1.61  50 1.62  18 1.65  88 3.03  98 3.09 101 3.14
 105  0.552  0.880  0.776-  69 1.61  49 1.62  24 1.62  17 1.64  79 3.07 100 3.08  96 3.08
 106  0.334  0.425  0.763-  22 1.62  15 1.62  53 1.62  67 1.64  77 3.07 100 3.07  97 3.11
 107  0.770  0.764  0.894-  57 1.72   6 1.72  27 1.78  38 1.78 112 3.04  76 3.07 100 3.15  75 3.17
                            79 3.23
 108  0.653  0.094  0.232-  61 1.72   8 1.73  26 1.74  44 1.79  92 3.07 110 3.10  95 3.11  81 3.16
                            90 3.23
 109  0.329  0.897  0.557-  32 1.71  54 1.74  66 1.74  16 1.79  86 3.07  96 3.13  99 3.17 111 3.23

 110  0.561  0.025  0.037-  44 2.31  72 2.50  26 2.54 108 3.10  81 3.17
 111  0.316  0.669  0.480-  16 2.28  18 2.45  14 2.56  54 2.77 109 3.23 101 3.25  99 3.35
 112  0.781  0.614  0.748-  73 1.96  27 2.23  38 2.27 107 3.04
 
  LATTYP: Found a hexagonal cell.
 ALAT       =    13.6750001907
 C/A-ratio  =     1.0798537472
  
  Lattice vectors:
  
 A1 = (  13.6750001907,   0.0000000000,   0.0000000000)
 A2 = (  -6.8375000954,  11.8428975619,   0.0000000000)
 A3 = (   0.0000000000,   0.0000000000,  14.7670001984)


Analysis of symmetry for initial positions (statically):
=====================================================================
 Subroutine PRICEL returns:
 Original cell was already a primitive cell.
 

 Routine SETGRP: Setting up the symmetry group for a 
 hexagonal supercell.


 Subroutine GETGRP returns: Found  1 space group operations
 (whereof  1 operations were pure point group operations)
 out of a pool of 24 trial point group operations.


The static configuration has the point symmetry C_1 .


Analysis of symmetry for dynamics (positions and initial velocities):
=====================================================================
 Subroutine PRICEL returns:
 Original cell was already a primitive cell.
 

 Routine SETGRP: Setting up the symmetry group for a 
 hexagonal supercell.


 Subroutine GETGRP returns: Found  1 space group operations
 (whereof  1 operations were pure point group operations)
 out of a pool of 24 trial point group operations.


The dynamic configuration has the point symmetry C_1 .


Analysis of structural, dynamic, and magnetic symmetry:
=====================================================================
 Subroutine PRICEL returns:
 Original cell was already a primitive cell.
 

 Routine SETGRP: Setting up the symmetry group for a 
 hexagonal supercell.


 Subroutine GETGRP returns: Found  1 space group operations
 (whereof  1 operations were pure point group operations)
 out of a pool of 24 trial point group operations.


The magnetic configuration has the point symmetry C_1 .


 Subroutine INISYM returns: Found  1 space group operations
 (whereof  1 operations are pure point group operations),
 and found     1 'primitive' translations

 
 
 KPOINTS: Gamma points only                       
  k-points in reciprocal lattice
Space group operators:
 irot       det(A)        alpha          n_x          n_y          n_z        tau_x        tau_y        tau_z
    1     1.000000     0.000000     1.000000     0.000000     0.000000     0.000000     0.000000     0.000000


--------------------------------------------------------------------------------------------------------




 Dimension of arrays:
   k-points           NKPTS =      1   k-points in BZ     NKDIM =      1   number of bands    NBANDS=    424
   number of dos      NEDOS =    301   number of ions     NIONS =    112
   non local maximal  LDIM  =      6   non local SUM 2l+1 LMDIM =     18
   total plane-waves  NPLWV = 777600
   max r-space proj   IRMAX =   4725   max aug-charges    IRDMAX= 128081
   dimension x,y,z NGX =    90 NGY =   90 NGZ =   96
   dimension x,y,z NGXF=   180 NGYF=  180 NGZF=  192
   support grid    NGXF=   360 NGYF=  360 NGZF=  384
   ions per type =              73  33   3   3
   NGX,Y,Z   is equivalent  to a cutoff of  10.94, 10.94, 10.81 a.u.
   NGXF,Y,Z  is equivalent  to a cutoff of  21.88, 21.88, 21.62 a.u.

 SYSTEM =  zeolite                                 
 POSCAR =  O  C                                    

 Startparameter for this run:
   NWRITE =      2    write-flag & timer
   PREC   = acc       normal or accurate (medium, high low for compatibility)
   ISTART =      0    job   : 0-new  1-cont  2-samecut
   ICHARG =      2    charge: 1-file 2-atom 10-const
   ISPIN  =      2    spin polarized calculation?
   LNONCOLLINEAR =      F non collinear calculations
   LSORBIT =      F    spin-orbit coupling
   INIWAV =      1    electr: 0-lowe 1-rand  2-diag
   LASPH  =      F    aspherical Exc in radial PAW
   METAGGA=      F    non-selfconsistent MetaGGA calc.

 Electronic Relaxation 1
   ENCUT  =  400.0 eV  29.40 Ry    5.42 a.u.  22.30 22.30 24.08*2*pi/ulx,y,z
   ENINI  =  400.0     initial cutoff
   ENAUG  =  605.4 eV  augmentation charge cutoff
   NELM   =    100;   NELMIN=  2; NELMDL=  0     # of ELM steps 
   EDIFF  = 0.1E-07   stopping-criterion for ELM
   LREAL  =      T    real-space projection
   NLSPLINE    = F    spline interpolate recip. space projectors
   LCOMPAT=      F    compatible to vasp.4.4
   GGA_COMPAT  = T    GGA compatible to vasp.4.4-vasp.4.6
   LMAXPAW     = -100 max onsite density
   LMAXMIX     =    2 max onsite mixed and CHGCAR
   VOSKOWN=      0    Vosko Wilk Nusair interpolation
   ROPT   =   -0.00025  -0.00025  -0.00025  -0.00025
 Ionic relaxation
   EDIFFG = -.1E-07   stopping-criterion for IOM
   NSW    =      4    number of steps for IOM
   NBLOCK =      1;   KBLOCK =      4    inner block; outer block 
   IBRION =      3    ionic relax: 0-MD 1-quasi-New 2-CG
   NFREE  =      0    steps in history (QN), initial steepest desc. (CG)
   ISIF   =      2    stress and relaxation
   IWAVPR =     11    prediction:  0-non 1-charg 2-wave 3-comb
   ISYM   =      2    0-nonsym 1-usesym 2-fastsym
   LCORR  =      T    Harris-Foulkes like correction to forces

   POTIM  = 0.0000    time-step for ionic-motion
   TEIN   =    0.0    initial temperature
   TEBEG  =    0.0;   TEEND  =   0.0 temperature during run
   SMASS  =  -3.00    Nose mass-parameter (am)
   estimated Nose-frequenzy (Omega)   =  0.10E-29 period in steps =  0.00 mass=  -0.427E-26a.u.
   SCALEE = 1.0000    scale energy and forces
   NPACO  =    256;   APACO  = 16.0  distance and # of slots for P.C.
   PSTRESS=    0.0 pullay stress

  Mass of Ions in am
   POMASS =  16.00 28.09 26.98107.87
  Ionic Valenz
   ZVAL   =   6.00  4.00  3.00 11.00
  Atomic Wigner-Seitz radii
   RWIGS  =  -1.00 -1.00 -1.00 -1.00
  virtual crystal weights 
   VCA    =   1.00  1.00  1.00  1.00
   NELECT =     612.0000    total number of electrons
   NUPDOWN=      -1.0000    fix difference up-down

 DOS related values:
   EMIN   =  10.00;   EMAX   =-10.00  energy-range for DOS
   EFERMI =   0.00
   ISMEAR =     0;   SIGMA  =   0.05  broadening in eV -4-tet -1-fermi 0-gaus

 Electronic relaxation 2 (details)
   IALGO  =     38    algorithm
   LDIAG  =      T    sub-space diagonalisation (order eigenvalues)
   LSUBROT=      F    optimize rotation matrix (better conditioning)
   TURBO    =      0    0=normal 1=particle mesh
   IRESTART =      0    0=no restart 2=restart with 2 vectors
   NREBOOT  =      0    no. of reboots
   NMIN     =      0    reboot dimension
   EREF     =   0.00    reference energy to select bands
   IMIX   =      4    mixing-type and parameters
     AMIX     =   0.40;   BMIX     =  1.00
     AMIX_MAG =   1.60;   BMIX_MAG =  1.00
     AMIN     =   0.10
     WC   =   100.;   INIMIX=   1;  MIXPRE=   1;  MAXMIX= -45

 Intra band minimization:
   WEIMIN = 0.0010     energy-eigenvalue tresh-hold
   EBREAK =  0.59E-12  absolut break condition
   DEPER  =   0.30     relativ break condition  

   TIME   =   0.40     timestep for ELM

  volume/ion in A,a.u.               =      21.35       144.10
  Fermi-wavevector in a.u.,A,eV,Ry     =   1.039360  1.964106 14.697962  1.080270
  Thomas-Fermi vector in A             =   2.173887
 
 Write flags
   LWAVE        =      F    write WAVECAR
   LDOWNSAMPLE  =      F    k-point downsampling of WAVECAR
   LCHARG       =      F    write CHGCAR
   LVTOT        =      F    write LOCPOT, total local potential
   LVHAR        =      F    write LOCPOT, Hartree potential only
   LELF         =      F    write electronic localiz. function (ELF)
   LORBIT       =     11    0 simple, 1 ext, 2 COOP (PROOUT), +10 PAW based schemes


 Dipole corrections
   LMONO  =      F    monopole corrections only (constant potential shift)
   LDIPOL =      F    correct potential (dipole corrections)
   IDIPOL =      0    1-x, 2-y, 3-z, 4-all directions 
   EPSILON=  1.0000000 bulk dielectric constant

 Exchange correlation treatment:
   GGA     =    --    GGA type
   LEXCH   =     8    internal setting for exchange type
   VOSKOWN=      0    Vosko Wilk Nusair interpolation
   LHFCALC =     F    Hartree Fock is set to
   LHFONE  =     F    Hartree Fock one center treatment
   AEXX    =    0.0000 exact exchange contribution

 Linear response parameters
   LEPSILON=     F    determine dielectric tensor
   LRPA    =     F    only Hartree local field effects (RPA)
   LNABLA  =     F    use nabla operator in PAW spheres
   LVEL    =     F    velocity operator in full k-point grid
   LINTERFAST=   F  fast interpolation
   KINTER  =     0    interpolate to denser k-point grid
   CSHIFT  =0.1000    complex shift for real part using Kramers Kronig
   OMEGAMAX=  -1.0    maximum frequency
   DEG_THRESHOLD= 0.2000000E-02 threshold for treating states as degnerate
   RTIME   =   -0.100 relaxation time in fs
  (WPLASMAI=    0.000 imaginary part of plasma frequency in eV, 0.658/RTIME)
   DFIELD  = 0.0000000 0.0000000 0.0000000 field for delta impulse in time
 
 Orbital magnetization related:
   ORBITALMAG=     F  switch on orbital magnetization
   LCHIMAG   =     F  perturbation theory with respect to B field
   DQ        =  0.001000  dq finite difference perturbation B field
   LLRAUG    =     F  two centre corrections for induced B field



--------------------------------------------------------------------------------------------------------


 quickmin algorithm: (dynamic with friction)
 charge density and potential will be updated during run
 spin polarized calculation
 Variant of blocked Davidson
 Davidson routine will perform the subspace rotation
 perform sub-space diagonalisation
    after iterative eigenvector-optimisation
 modified Broyden-mixing scheme, WC =      100.0
 initial mixing is a Kerker type mixing with AMIX =  0.4000 and BMIX =      1.0000
 Hartree-type preconditioning will be used
 using additional bands          118
 real space projection scheme for non local part
 use partial core corrections
 calculate Harris-corrections to forces 
   (improved forces if not selfconsistent)
 use gradient corrections 
 use of overlap-Matrix (Vanderbilt PP)
 Gauss-broadening in eV      SIGMA  =   0.05


--------------------------------------------------------------------------------------------------------


  energy-cutoff  :      400.00
  volume of cell :     2391.54
      direct lattice vectors                 reciprocal lattice vectors
    13.675000191  0.000000000  0.000000000     0.073126142  0.042219398  0.000000000
    -6.837500095 11.842897562  0.000000000     0.000000000  0.084438795  0.000000000
     0.000000000  0.000000000 14.767000198     0.000000000  0.000000000  0.067718561

  length of vectors
    13.675000191 13.675000191 14.767000198     0.084438795  0.084438795  0.067718561


 
 k-points in units of 2pi/SCALE and weight: Gamma points only                       
   0.00000000  0.00000000  0.00000000       1.000
 
 k-points in reciprocal lattice and weights: Gamma points only                       
   0.00000000  0.00000000  0.00000000       1.000
 
 position of ions in fractional coordinates (direct lattice) 
   0.89647902  0.09490056  0.11973645
   0.10141554  0.88679518  0.88037932
   0.89069357  0.79243086  0.12998576
   0.09320584  0.19406205  0.86721984
   0.19285015  0.10139164  0.11704449
   0.79905412  0.90143494  0.88270370
   0.55202437  0.42418208  0.45830280
   0.76106978  0.23202843  0.21968222
   0.56382019  0.13972080  0.47116105
   0.76379836  0.53635020  0.20444837
   0.86291899  0.42393582  0.46087583
   0.46176435  0.23365393  0.18407146
   0.22888278  0.77183612  0.77725213
   0.42296568  0.56791509  0.52531704
   0.23094506  0.44958324  0.77534587
   0.42677249  0.84906261  0.53157228
   0.53106709  0.75458700  0.80560874
   0.12067739  0.55710044  0.53384279
   0.97426583  0.31353368  0.16109069
   0.01915430  0.66744498  0.84199816
   0.67524425  0.67122327  0.17548186
   0.31103515  0.31467079  0.81935332
   0.31578349  0.01264091  0.17797578
   0.66130224  0.97786945  0.82800284
   0.32119572  0.98201002  0.83919261
   0.67508466  0.00268499  0.16298682
   0.67084975  0.67154032  0.81276837
   0.32930914  0.32105203  0.15870809
   0.01578839  0.33440292  0.83272029
   0.98448280  0.66790010  0.17294650
   0.64499337  0.63970273  0.50337490
   0.34011063  0.99126892  0.47607470
   0.99216210  0.33486717  0.49902517
   0.33446123  0.34815916  0.48208714
   0.98456620  0.64177501  0.50447614
   0.64745643  0.00609489  0.51602767
   0.11536297  0.24147127  0.12926434
   0.88220217  0.74592537  0.85428455
   0.75755166  0.87581697  0.11154619
   0.22649569  0.10609562  0.86985201
   0.10932127  0.88032909  0.12859269
   0.87398597  0.12008821  0.85941655
   0.77195848  0.55373546  0.46997413
   0.53331452  0.08478100  0.17564670
   0.41208538  0.20720637  0.46774924
   0.90081383  0.45152582  0.19778816
   0.78141468  0.20470189  0.45315288
   0.54390899  0.45368286  0.19470263
   0.44529045  0.89098437  0.80777856
   0.20770820  0.42689951  0.53976036
   0.11763992  0.55234094  0.80232639
   0.57760777  0.78633676  0.52071155
   0.44955020  0.53283095  0.80060473
   0.20046504  0.77350032  0.54430130
   0.99438046  0.25522703  0.99546360
   0.98558428  0.72761546  0.00307251
   0.73035661  0.70993387  0.00162616
   0.25445991  0.26277879  0.99213592
   0.26460968  0.99849356  0.00414061
   0.65934827  0.58433265  0.33491019
   0.62881031  0.04691421  0.34237955
   0.43707942  0.10517757  0.32552147
   0.91512390  0.58448830  0.33589521
   0.93712571  0.34208940  0.33076712
   0.40411814  0.32188835  0.32322371
   0.35498482  0.94630968  0.66782749
   0.34963970  0.40777965  0.65507524
   0.05830807  0.40403244  0.66609221
   0.57345430  0.89437959  0.66796129
   0.56776541  0.65825305  0.66105026
   0.05238595  0.63956337  0.67068482
   0.73032815  0.01096783  0.99485124
   0.79249055  0.51110586  0.66151980
   0.99360903  0.22566961  0.10214817
   0.99865080  0.75868504  0.89637623
   0.76254572  0.76102265  0.10201708
   0.22067227  0.21932447  0.88824230
   0.22030411  0.99920966  0.10688364
   0.76835786  0.99945691  0.89032184
   0.22783143  0.99273844  0.89838699
   0.76670913  0.99648247  0.10003541
   0.22309561  0.23097445  0.09883349
   0.99468195  0.22456006  0.88979910
   0.99152854  0.76680554  0.10825122
   0.65684605  0.54953002  0.43965038
   0.43721961  0.10732858  0.43583098
   0.88997593  0.55876753  0.22814798
   0.89089312  0.32479881  0.43400579
   0.43534745  0.33194960  0.21613680
   0.88892778  0.33110443  0.22719408
   0.42609913  0.32391102  0.43124104
   0.43765272  0.10910723  0.21683345
   0.88391881  0.54952742  0.44121866
   0.66159520  0.56107823  0.22713491
   0.65378211  0.09870809  0.44247336
   0.33747103  0.89939308  0.76870189
   0.32898815  0.43527780  0.55213291
   0.10580411  0.43456434  0.76920958
   0.55592347  0.88679494  0.55882927
   0.55341828  0.65475493  0.77018137
   0.09020986  0.65688567  0.56428101
   0.55449115  0.66391647  0.55288652
   0.10659850  0.66000710  0.77210004
   0.09200113  0.42832398  0.56040517
   0.55223618  0.87951219  0.77569549
   0.33446222  0.42538669  0.76267013
   0.76954533  0.76421484  0.89448426
   0.65341633  0.09366328  0.23186113
   0.32928028  0.89678130  0.55709263
   0.56102745  0.02506102  0.03684122
   0.31575439  0.66927971  0.48029976
   0.78128462  0.61433113  0.74780917
 
 position of ions in cartesian coordinates  (Angst):
  11.61046820  1.12389762  1.76814812
  -4.67660461 10.50222442 13.00056165
   6.76198867  9.38467752  1.91949977
  -0.05230936  2.29825698 12.80623549
   1.94396043  1.20077086  1.72839606
   4.76350377 10.67560160 13.03488567
   4.64858836  5.02354495  6.76775760
   8.82113496  2.74788893  3.24404735
   6.75490019  1.65469909  6.95763530
   6.77764825  6.35194042  3.01908913
   8.90175610  5.02062849  6.80575344
   4.71701877  2.76713962  2.71818330
  -2.14745756  9.14077614 11.47768230
   1.90093627  6.72576020  7.75735686
   0.08414824  5.32436830 11.44953258
   0.03064819 10.05536146  7.84972792
   2.10285392  8.93649650 11.89642446
  -2.15891096  6.59768350  7.88325655
  11.17929889  3.71314730  2.37882622
  -4.30172009  7.90448256 12.43378698
   4.64447611  7.94922846  2.59134062
   2.10184415  3.72661397 12.09939060
   4.23190703  0.14970497  2.62816843
   2.35712586 11.58080770 12.22711814
  -2.32214213 11.62984407 12.39235748
   9.21342419  0.03179803  2.40682640
   4.58221347  7.95298325 12.00215069
   2.30810920  3.80218632  2.34364235
  -2.07057384  3.96029956 12.29678073
   8.89603540  7.90987252  2.55390102
   4.44631703  7.57593386  7.43333718
  -2.12678846 11.73949632  7.03019523
  11.27816266  3.96579761  7.36910477
   2.19321910  4.12321331  7.11898082
   9.07580628  7.60047565  7.44959932
   8.81229304  0.07218111  7.62018074
  -0.07347119  2.85971953  1.90884657
   6.96385004  8.83391769 12.61522017
   4.37112049 10.37221071  1.64720266
   2.37189973  1.25647959 12.84510483
  -4.52428189 10.42564719  1.89892830
  11.13065513  1.42219236 12.69100442
   6.77036615  6.55783230  6.94010807
   6.71338602  1.00405270  2.59377480
   4.21849410  2.45392383  6.90725309
   9.23132146  5.34737403  2.92073783
   9.28619667  2.42426357  6.69170867
   4.33589897  5.37291959  2.87517383
  -0.00275868 10.55183664 11.92846609
  -0.07851580  5.05572712  7.97064141
  -2.16790526  6.54131720 11.84795390
   2.52220877  9.31250566  7.68934760
   2.50436743  6.31026231 11.82253023
  -2.54744907  9.16048501  8.03769737
  11.85303809  3.02262759 14.70001125
   8.50279446  8.61707537  0.04537182
   5.13345388  8.40767405  0.02401348
   1.68298933  3.11206225 14.65087139
  -3.20866245 11.82505699  0.06114439
   5.02121308  6.92019175  4.94561882
   8.27820524  0.55560018  5.05591885
   5.25790953  1.24560720  4.80697558
   8.51788070  6.92203506  4.96016465
  10.47615795  4.05132974  4.88443820
   3.32540398  3.81209080  4.77304454
  -1.61597512 11.20704862  9.86180863
   1.99312953  4.82929260  9.67349614
  -1.96520897  4.78491475  9.83618383
   1.72666711 10.59204590  9.86378450
   3.26338674  7.79562343  9.76172931
  -3.65663678  7.57428353  9.90400280
   9.91224511  0.12989090 14.69096844
   7.34262213  6.05297433  9.76866296
  12.04458764  2.67258208  1.50842209
   8.46904080  8.98502920 13.23678795
   5.22432041  9.01271326  1.50648618
   1.51806218  2.59743724 13.11667422
  -3.81943739 11.83353764  1.57835066
   3.67350721 11.83646582 13.14738284
  -3.67225438 11.75689964 13.26648083
   3.67129850 11.80123978  1.47722288
   1.47154474  2.73540673  1.45947418
  12.06684650  2.65944177 13.13966348
   8.31612000  9.08119945  1.59854573
   5.22495831  6.50802770  6.49231724
   5.24511913  1.27108132  6.43591614
   8.34984807  6.61742657  3.36906129
   9.96215167  3.84655898  6.40896364
   3.68367110  3.93124511  3.19169215
   9.89216102  3.92123583  3.35497501
   3.61216408  3.83604502  6.36813652
   5.23888039  1.29214572  3.20197963
   8.33019617  6.50799689  6.51547609
   5.21094200  6.64479200  3.35410132
   8.26555388  1.16898983  6.53400426
  -1.53468380 10.65142007 11.35142098
   1.52270101  5.15495043  8.15334679
  -1.52446247  5.14650094 11.35891798
   1.53879309 10.50222165  8.25223200
   3.09110820  7.75419553 11.37326847
  -3.25783604  7.77942975  8.33273778
   3.04313765  7.86269474  8.16447536
  -3.05506411  7.81639649 11.40160146
  -1.67054977  5.07259706  8.27550326
   1.53816524 10.41597274 11.45469551
   1.66518940  5.03781099 11.26234996
   5.29821343  9.05051810 13.20884922
   8.29504580  1.10924466  3.42389338
  -1.62883432 10.62048904  8.22658701
   7.50069580  0.29679504  0.54403430
  -0.25825875  7.92621104  7.09258671
   6.48357811  7.27546064 11.04289822
 


--------------------------------------------------------------------------------------------------------


 k-point  1 :   0.0000 0.0000 0.0000  plane waves:   43405

 maximum and minimum number of plane-waves per node :     10852    10850

 maximum number of plane-waves:     43405
 maximum index in each direction: 
   IXMAX=   22   IYMAX=   22   IZMAX=   24
   IXMIN=  -22   IYMIN=  -22   IZMIN=  -24


 real space projection operators:
  total allocation   :      30283.56 KBytes
  max/ min on nodes  :       7735.86       7405.27


 parallel 3D FFT for wavefunctions:
    minimum data exchange during FFTs selected (reduces bandwidth)
 parallel 3D FFT for charge:
    minimum data exchange during FFTs selected (reduces bandwidth)


 total amount of memory used by VASP MPI-rank0   207100. kBytes
=======================================================================

   base      :      30000. kBytes
   nonlr-proj:      18504. kBytes
   fftplans  :      63994. kBytes
   grid      :      56122. kBytes
   one-center:        870. kBytes
   wavefun   :      37610. kBytes
 
     INWAV:  cpu time    0.0000: real time    0.0002
 Broyden mixing: mesh for mixing (old mesh)
   NGX = 45   NGY = 45   NGZ = 49
  (NGX  =180   NGY  =180   NGZ  =192)
  gives a total of  99225 points

 initial charge density was supplied:
 charge density of overlapping atoms calculated
 number of electron     612.0000000 magnetization     112.0000000
 keeping initial charge density in first step


--------------------------------------------------------------------------------------------------------


 Maximum index for non-local projection operator         1306
 Maximum index for augmentation-charges         7899 (set IRDMAX)


--------------------------------------------------------------------------------------------------------


 First call to EWALD:  gamma=   0.133
 Maximum number of real-space cells 3x 3x 3
 Maximum number of reciprocal cells 3x 3x 3

    FEWALD:  cpu time    0.0137: real time    0.0137
 

--------------------------------------- Iteration      1(   1)  ---------------------------------------


    POTLOK:  cpu time    0.5973: real time    0.6233
    SETDIJ:  cpu time    0.4584: real time    0.4604
     EDDAV:  cpu time   15.3186: real time   15.3649
       DOS:  cpu time    0.0007: real time    0.0007
    --------------------------------------------
      LOOP:  cpu time   16.3750: real time   16.4493

 eigenvalue-minimisations  :  1760
 total energy-change (2. order) : 0.4381308E+04  (-0.2550852E+05)
 number of electron     612.0000000 magnetization     112.0000000
 augmentation part      612.0000000 magnetization     112.0000000

 Free energy of the ion-electron system (eV)
  ---------------------------------------------------
  alpha Z        PSCENC =       626.70725857
  Ewald energy   TEWEN  =     -5785.04764319
  -Hartree energ DENC   =    -29005.80806910
  -exchange      EXHF   =         0.00000000
  -V(xc)+E(xc)   XCENC  =      1646.73891671
  PAW double counting   =     21752.82258781   -21071.67263733
  entropy T*S    EENTRO =        -0.03954381
  eigenvalues    EBANDS =     -2011.60352574
  atomic energy  EATOM  =     38229.21038423
  Solvation  Ediel_sol  =         0.00000000
  ---------------------------------------------------
  free energy    TOTEN  =      4381.30772815 eV

  energy without entropy =     4381.34727196  energy(sigma->0) =     4381.32750005


--------------------------------------------------------------------------------------------------------




--------------------------------------- Iteration      1(   2)  ---------------------------------------


     EDDAV:  cpu time   17.5669: real time   17.6299
       DOS:  cpu time    0.0006: real time    0.0006
    --------------------------------------------
      LOOP:  cpu time   17.5676: real time   17.6305

 eigenvalue-minimisations  :  2072
 total energy-change (2. order) :-0.4782927E+04  (-0.4601537E+04)
 number of electron     612.0000000 magnetization     112.0000000
 augmentation part      612.0000000 magnetization     112.0000000

 Free energy of the ion-electron system (eV)
  ---------------------------------------------------
  alpha Z        PSCENC =       626.70725857
  Ewald energy   TEWEN  =     -5785.04764319
  -Hartree energ DENC   =    -29005.80806910
  -exchange      EXHF   =         0.00000000
  -V(xc)+E(xc)   XCENC  =      1646.73891671
  PAW double counting   =     21752.82258781   -21071.67263733
  entropy T*S    EENTRO =        -0.00198886
  eigenvalues    EBANDS =     -6794.56825512
  atomic energy  EATOM  =     38229.21038423
  Solvation  Ediel_sol  =         0.00000000
  ---------------------------------------------------
  free energy    TOTEN  =      -401.61944629 eV

  energy without entropy =     -401.61745742  energy(sigma->0) =     -401.61845186


--------------------------------------------------------------------------------------------------------




--------------------------------------- Iteration      1(   3)  ---------------------------------------


     EDDAV:  cpu time   17.6374: real time   17.6807
       DOS:  cpu time    0.0005: real time    0.0005
    --------------------------------------------
      LOOP:  cpu time   17.6379: real time   17.6812

 eigenvalue-minimisations  :  2080
 total energy-change (2. order) :-0.5287770E+03  (-0.5249755E+03)
 number of electron     612.0000000 magnetization     112.0000000
 augmentation part      612.0000000 magnetization     112.0000000

 Free energy of the ion-electron system (eV)
  ---------------------------------------------------
  alpha Z        PSCENC =       626.70725857
  Ewald energy   TEWEN  =     -5785.04764319
  -Hartree energ DENC   =    -29005.80806910
  -exchange      EXHF   =         0.00000000
  -V(xc)+E(xc)   XCENC  =      1646.73891671
  PAW double counting   =     21752.82258781   -21071.67263733
  entropy T*S    EENTRO =        -0.00000003
  eigenvalues    EBANDS =     -7323.34725613
  atomic energy  EATOM  =     38229.21038423
  Solvation  Ediel_sol  =         0.00000000
  ---------------------------------------------------
  free energy    TOTEN  =      -930.39645847 eV

  energy without entropy =     -930.39645844  energy(sigma->0) =     -930.39645845


--------------------------------------------------------------------------------------------------------




--------------------------------------- Iteration      1(   4)  ---------------------------------------


     EDDAV:  cpu time   17.7748: real time   17.8484
       DOS:  cpu time    0.0004: real time    0.0004
    --------------------------------------------
      LOOP:  cpu time   17.7752: real time   17.8488

 eigenvalue-minimisations  :  2104
 total energy-change (2. order) :-0.1073664E+02  (-0.1069818E+02)
 number of electron     612.0000000 magnetization     112.0000000
 augmentation part      612.0000000 magnetization     112.0000000

 Free energy of the ion-electron system (eV)
  ---------------------------------------------------
  alpha Z        PSCENC =       626.70725857
  Ewald energy   TEWEN  =     -5785.04764319
  -Hartree energ DENC   =    -29005.80806910
  -exchange      EXHF   =         0.00000000
  -V(xc)+E(xc)   XCENC  =      1646.73891671
  PAW double counting   =     21752.82258781   -21071.67263733
  entropy T*S    EENTRO =        -0.00000002
  eigenvalues    EBANDS =     -7334.08389641
  atomic energy  EATOM  =     38229.21038423
  Solvation  Ediel_sol  =         0.00000000
  ---------------------------------------------------
  free energy    TOTEN  =      -941.13309874 eV

  energy without entropy =     -941.13309872  energy(sigma->0) =     -941.13309873


--------------------------------------------------------------------------------------------------------




--------------------------------------- Iteration      1(   5)  ---------------------------------------


     EDDAV:  cpu time   17.8681: real time   17.9432
       DOS:  cpu time    0.0005: real time    0.0005
    CHARGE:  cpu time    1.2936: real time    1.2967
    MIXING:  cpu time    0.0116: real time    0.0117
    --------------------------------------------
      LOOP:  cpu time   19.1737: real time   19.2521

 eigenvalue-minimisations  :  2112
 total energy-change (2. order) :-0.2778290E+00  (-0.2774859E+00)
 number of electron     612.0000002 magnetization      85.0211683
 augmentation part       69.6082315 magnetization      85.1273489

 Broyden mixing:
  rms(total) = 0.87109E+01    rms(broyden)= 0.87067E+01
  rms(prec ) = 0.95532E+01
  weight for this iteration     100.00

 Free energy of the ion-electron system (eV)
  ---------------------------------------------------
  alpha Z        PSCENC =       626.70725857
  Ewald energy   TEWEN  =     -5785.04764319
  -Hartree energ DENC   =    -29005.80806910
  -exchange      EXHF   =         0.00000000
  -V(xc)+E(xc)   XCENC  =      1646.73891671
  PAW double counting   =     21752.82258781   -21071.67263733
  entropy T*S    EENTRO =        -0.00000002
  eigenvalues    EBANDS =     -7334.36172543
  atomic energy  EATOM  =     38229.21038423
  Solvation  Ediel_sol  =         0.00000000
  ---------------------------------------------------
  free energy    TOTEN  =      -941.41092776 eV

  energy without entropy =     -941.41092774  energy(sigma->0) =     -941.41092775


--------------------------------------------------------------------------------------------------------




--------------------------------------- Iteration      1(   6)  ---------------------------------------


    POTLOK:  cpu time    0.5923: real time    0.5958
    SETDIJ:  cpu time    0.4636: real time    0.4650
     EDDAV:  cpu time   16.8689: real time   16.9476
       DOS:  cpu time    0.0003: real time    0.0003
    CHARGE:  cpu time    1.2793: real time    1.2825
    MIXING:  cpu time    0.0137: real time    0.0137
    --------------------------------------------
      LOOP:  cpu time   19.2180: real time   19.3050

 eigenvalue-minimisations  :  1968
 total energy-change (2. order) : 0.3395324E+03  (-0.7154756E+02)
 number of electron     612.0000002 magnetization      65.1969037
 augmentation part       62.3652874 magnetization      59.7742173

 Broyden mixing:
  rms(total) = 0.33540E+01    rms(broyden)= 0.33500E+01
  rms(prec ) = 0.36615E+01
  weight for this iteration     100.00

 eigenvalues of (default mixing * dielectric matrix)
  average eigenvalue GAMMA=   0.9148
  0.9148

 Free energy of the ion-electron system (eV)
  ---------------------------------------------------
  alpha Z        PSCENC =       626.70725857
  Ewald energy   TEWEN  =     -5785.04764319
  -Hartree energ DENC   =    -30364.13692336
  -exchange      EXHF   =         0.00000000
  -V(xc)+E(xc)   XCENC  =      1893.72360572
  PAW double counting   =     25434.02191691   -24777.12279772
  entropy T*S    EENTRO =        -0.00000000
  eigenvalues    EBANDS =     -5859.23437100
  atomic energy  EATOM  =     38229.21038423
  Solvation  Ediel_sol  =         0.00000000
  ---------------------------------------------------
  free energy    TOTEN  =      -601.87856983 eV

  energy without entropy =     -601.87856983  energy(sigma->0) =     -601.87856983


--------------------------------------------------------------------------------------------------------




--------------------------------------- Iteration      1(   7)  ---------------------------------------


    POTLOK:  cpu time    0.5909: real time    0.5925
    SETDIJ:  cpu time    0.4614: real time    0.4626
     EDDAV:  cpu time   18.2737: real time   18.3615
       DOS:  cpu time    0.0007: real time    0.0007
    CHARGE:  cpu time    1.2982: real time    1.3014
    MIXING:  cpu time    0.0141: real time    0.0141
    --------------------------------------------
      LOOP:  cpu time   20.6388: real time   20.7327

 eigenvalue-minimisations  :  2176
 total energy-change (2. order) :-0.7465070E+02  (-0.1106677E+02)
 number of electron     612.0000002 magnetization      52.2385782
 augmentation part       59.6521951 magnetization      47.4405236

 Broyden mixing:
  rms(total) = 0.21471E+01    rms(broyden)= 0.21463E+01
  rms(prec ) = 0.22643E+01
  weight for this iteration     100.00

 eigenvalues of (default mixing * dielectric matrix)
  average eigenvalue GAMMA=   0.8344
  0.9389  0.7299

 Free energy of the ion-electron system (eV)
  ---------------------------------------------------
  alpha Z        PSCENC =       626.70725857
  Ewald energy   TEWEN  =     -5785.04764319
  -Hartree energ DENC   =    -30753.36023031
  -exchange      EXHF   =         0.00000000
  -V(xc)+E(xc)   XCENC  =      1859.89033756
  PAW double counting   =     26685.88016467   -26032.75081871
  entropy T*S    EENTRO =        -0.00730168
  eigenvalues    EBANDS =     -5507.05142572
  atomic energy  EATOM  =     38229.21038423
  Solvation  Ediel_sol  =         0.00000000
  ---------------------------------------------------
  free energy    TOTEN  =      -676.52927457 eV

  energy without entropy =     -676.52197290  energy(sigma->0) =     -676.52562373


--------------------------------------------------------------------------------------------------------




--------------------------------------- Iteration      1(   8)  ---------------------------------------


    POTLOK:  cpu time    0.5909: real time    0.5946
    SETDIJ:  cpu time    0.4635: real time    0.4646
     EDDAV:  cpu time   17.9245: real time   17.9801
       DOS:  cpu time    0.0003: real time    0.0003
    CHARGE:  cpu time    1.2903: real time    1.2934
    MIXING:  cpu time    0.0131: real time    0.0132
    --------------------------------------------
      LOOP:  cpu time   20.2825: real time   20.3462

 eigenvalue-minimisations  :  2128
 total energy-change (2. order) :-0.4745053E+02  (-0.1957680E+01)
 number of electron     612.0000002 magnetization      26.3352648
 augmentation part       59.7462983 magnetization      22.0729106

 Broyden mixing:
  rms(total) = 0.14840E+01    rms(broyden)= 0.14838E+01
  rms(prec ) = 0.15559E+01
  weight for this iteration     100.00

 eigenvalues of (default mixing * dielectric matrix)
  average eigenvalue GAMMA=   1.1376
  1.5550  1.2634  0.5945

 Free energy of the ion-electron system (eV)
  ---------------------------------------------------
  alpha Z        PSCENC =       626.70725857
  Ewald energy   TEWEN  =     -5785.04764319
  -Hartree energ DENC   =    -30833.53498204
  -exchange      EXHF   =         0.00000000
  -V(xc)+E(xc)   XCENC  =      1830.23827002
  PAW double counting   =     27041.88842841   -26388.10952450
  entropy T*S    EENTRO =        -0.00000000
  eigenvalues    EBANDS =     -5445.33199110
  atomic energy  EATOM  =     38229.21038423
  Solvation  Ediel_sol  =         0.00000000
  ---------------------------------------------------
  free energy    TOTEN  =      -723.97979959 eV

  energy without entropy =     -723.97979959  energy(sigma->0) =     -723.97979959


--------------------------------------------------------------------------------------------------------




--------------------------------------- Iteration      1(   9)  ---------------------------------------


    POTLOK:  cpu time    0.6323: real time    0.6372
    SETDIJ:  cpu time    0.4590: real time    0.4639
     EDDAV:  cpu time   16.8813: real time   16.9241
       DOS:  cpu time    0.0004: real time    0.0004
    CHARGE:  cpu time    1.2968: real time    1.3000
    MIXING:  cpu time    0.0131: real time    0.0132
    --------------------------------------------
      LOOP:  cpu time   19.2828: real time   19.3387

 eigenvalue-minimisations  :  1976
 total energy-change (2. order) :-0.8674159E+02  (-0.6004791E+01)
 number of electron     612.0000002 magnetization      16.8534022
 augmentation part       59.8279802 magnetization      13.9288865

 Broyden mixing:
  rms(total) = 0.64339E+00    rms(broyden)= 0.64268E+00
  rms(prec ) = 0.68185E+00
  weight for this iteration     100.00

 eigenvalues of (default mixing * dielectric matrix)
  average eigenvalue GAMMA=   1.2300
  2.4230  1.1806  0.6632  0.6530

 Free energy of the ion-electron system (eV)
  ---------------------------------------------------
  alpha Z        PSCENC =       626.70725857
  Ewald energy   TEWEN  =     -5785.04764319
  -Hartree energ DENC   =    -30950.47252824
  -exchange      EXHF   =         0.00000000
  -V(xc)+E(xc)   XCENC  =      1774.67476882
  PAW double counting   =     27541.93479900   -26886.36641727
  entropy T*S    EENTRO =        -0.00000000
  eigenvalues    EBANDS =     -5361.36201449
  atomic energy  EATOM  =     38229.21038423
  Solvation  Ediel_sol  =         0.00000000
  ---------------------------------------------------
  free energy    TOTEN  =      -810.72139256 eV

  energy without entropy =     -810.72139256  energy(sigma->0) =     -810.72139256


--------------------------------------------------------------------------------------------------------




--------------------------------------- Iteration      1(  10)  ---------------------------------------


    POTLOK:  cpu time    0.5900: real time    0.5917
    SETDIJ:  cpu time    0.4604: real time    0.4615
     EDDAV:  cpu time   17.6532: real time   17.6981
       DOS:  cpu time    0.0004: real time    0.0004
    CHARGE:  cpu time    1.3064: real time    1.3096
    MIXING:  cpu time    0.0143: real time    0.0143
    --------------------------------------------
      LOOP:  cpu time   20.0247: real time   20.0756

 eigenvalue-minimisations  :  2096
 total energy-change (2. order) :-0.2377472E+02  (-0.1475682E+01)
 number of electron     612.0000002 magnetization      12.6469523
 augmentation part       59.4641301 magnetization      10.4392370

 Broyden mixing:
  rms(total) = 0.46260E+00    rms(broyden)= 0.46187E+00
  rms(prec ) = 0.49289E+00
  weight for this iteration     100.00

 eigenvalues of (default mixing * dielectric matrix)
  average eigenvalue GAMMA=   1.1473
  2.4240  1.2902  0.7245  0.6489  0.6489

 Free energy of the ion-electron system (eV)
  ---------------------------------------------------
  alpha Z        PSCENC =       626.70725857
  Ewald energy   TEWEN  =     -5785.04764319
  -Hartree energ DENC   =    -30995.30358889
  -exchange      EXHF   =         0.00000000
  -V(xc)+E(xc)   XCENC  =      1762.12341390
  PAW double counting   =     27663.60670234   -27007.99868927
  entropy T*S    EENTRO =        -0.00000001
  eigenvalues    EBANDS =     -5327.79395309
  atomic energy  EATOM  =     38229.21038423
  Solvation  Ediel_sol  =         0.00000000
  ---------------------------------------------------
  free energy    TOTEN  =      -834.49611540 eV

  energy without entropy =     -834.49611540  energy(sigma->0) =     -834.49611540


--------------------------------------------------------------------------------------------------------




--------------------------------------- Iteration      1(  11)  ---------------------------------------


    POTLOK:  cpu time    0.5899: real time    0.5916
    SETDIJ:  cpu time    0.4596: real time    0.4607
     EDDAV:  cpu time   17.4918: real time   17.5523
       DOS:  cpu time    0.0005: real time    0.0005
    CHARGE:  cpu time    1.3091: real time    1.3123
    MIXING:  cpu time    0.0141: real time    0.0142
    --------------------------------------------
      LOOP:  cpu time   19.8649: real time   19.9315

 eigenvalue-minimisations  :  2072
 total energy-change (2. order) :-0.9210447E+01  (-0.4299228E+00)
 number of electron     612.0000002 magnetization       7.3326448
 augmentation part       59.4060976 magnetization       5.4078278

 Broyden mixing:
  rms(total) = 0.27481E+00    rms(broyden)= 0.27448E+00
  rms(prec ) = 0.29313E+00
  weight for this iteration     100.00

 eigenvalues of (default mixing * dielectric matrix)
  average eigenvalue GAMMA=   1.2503
  2.7427  1.7329  0.9694  0.8215  0.6177  0.6177

 Free energy of the ion-electron system (eV)
  ---------------------------------------------------
  alpha Z        PSCENC =       626.70725857
  Ewald energy   TEWEN  =     -5785.04764319
  -Hartree energ DENC   =    -30980.49814208
  -exchange      EXHF   =         0.00000000
  -V(xc)+E(xc)   XCENC  =      1755.83081258
  PAW double counting   =     27586.49246562   -26930.76132372
  entropy T*S    EENTRO =        -0.00000000
  eigenvalues    EBANDS =     -5345.64037398
  atomic energy  EATOM  =     38229.21038423
  Solvation  Ediel_sol  =         0.00000000
  ---------------------------------------------------
  free energy    TOTEN  =      -843.70656196 eV

  energy without entropy =     -843.70656196  energy(sigma->0) =     -843.70656196


--------------------------------------------------------------------------------------------------------




--------------------------------------- Iteration      1(  12)  ---------------------------------------


    POTLOK:  cpu time    0.5923: real time    0.5954
    SETDIJ:  cpu time    0.4614: real time    0.4625
     EDDAV:  cpu time   16.0854: real time   16.1403
       DOS:  cpu time    0.0004: real time    0.0004
    CHARGE:  cpu time    1.2788: real time    1.2820
    MIXING:  cpu time    0.0162: real time    0.0171
    --------------------------------------------
      LOOP:  cpu time   18.4345: real time   18.4978

 eigenvalue-minimisations  :  1864
 total energy-change (2. order) :-0.9365866E+01  (-0.4650861E+00)
 number of electron     612.0000002 magnetization       4.1220332
 augmentation part       59.3923463 magnetization       2.4960011

 Broyden mixing:
  rms(total) = 0.17048E+00    rms(broyden)= 0.16992E+00
  rms(prec ) = 0.18543E+00
  weight for this iteration     100.00

 eigenvalues of (default mixing * dielectric matrix)
  average eigenvalue GAMMA=   1.3118
  3.1584  2.0099  1.1385  0.7529  0.7529  0.6850  0.6850

 Free energy of the ion-electron system (eV)
  ---------------------------------------------------
  alpha Z        PSCENC =       626.70725857
  Ewald energy   TEWEN  =     -5785.04764319
  -Hartree energ DENC   =    -30949.43748664
  -exchange      EXHF   =         0.00000000
  -V(xc)+E(xc)   XCENC  =      1747.64618360
  PAW double counting   =     27481.19379402   -26825.23322316
  entropy T*S    EENTRO =        -0.00000000
  eigenvalues    EBANDS =     -5378.11169581
  atomic energy  EATOM  =     38229.21038423
  Solvation  Ediel_sol  =         0.00000000
  ---------------------------------------------------
  free energy    TOTEN  =      -853.07242837 eV

  energy without entropy =     -853.07242837  energy(sigma->0) =     -853.07242837


--------------------------------------------------------------------------------------------------------




--------------------------------------- Iteration      1(  13)  ---------------------------------------


    POTLOK:  cpu time    0.5888: real time    0.6017
    SETDIJ:  cpu time    0.4585: real time    0.4624
     EDDAV:  cpu time   16.3196: real time   16.3615
       DOS:  cpu time    0.0005: real time    0.0005
    CHARGE:  cpu time    1.3073: real time    1.3106
    MIXING:  cpu time    0.0146: real time    0.0147
    --------------------------------------------
      LOOP:  cpu time   18.6893: real time   18.7514

 eigenvalue-minimisations  :  1896
 total energy-change (2. order) :-0.3459266E+01  (-0.1749222E+00)
 number of electron     612.0000002 magnetization       2.7122374
 augmentation part       59.3680292 magnetization       1.2604065

 Broyden mixing:
  rms(total) = 0.77552E-01    rms(broyden)= 0.77051E-01
  rms(prec ) = 0.88301E-01
  weight for this iteration     100.00

 eigenvalues of (default mixing * dielectric matrix)
  average eigenvalue GAMMA=   1.3768
  3.6609  2.2914  1.2470  0.9523  0.6766  0.6766  0.8328  0.6769

 Free energy of the ion-electron system (eV)
  ---------------------------------------------------
  alpha Z        PSCENC =       626.70725857
  Ewald energy   TEWEN  =     -5785.04764319
  -Hartree energ DENC   =    -30924.90824926
  -exchange      EXHF   =         0.00000000
  -V(xc)+E(xc)   XCENC  =      1744.10675933
  PAW double counting   =     27424.41679745   -26768.39533099
  entropy T*S    EENTRO =        -0.00000020
  eigenvalues    EBANDS =     -5402.62167003
  atomic energy  EATOM  =     38229.21038423
  Solvation  Ediel_sol  =         0.00000000
  ---------------------------------------------------
  free energy    TOTEN  =      -856.53169410 eV

  energy without entropy =     -856.53169390  energy(sigma->0) =     -856.53169400


--------------------------------------------------------------------------------------------------------




--------------------------------------- Iteration      1(  14)  ---------------------------------------


    POTLOK:  cpu time    0.5898: real time    0.5915
    SETDIJ:  cpu time    0.4592: real time    0.4603
     EDDAV:  cpu time   16.4730: real time   16.5147
       DOS:  cpu time    0.0005: real time    0.0005
    CHARGE:  cpu time    1.2765: real time    1.2867
    MIXING:  cpu time    0.0151: real time    0.0152
    --------------------------------------------
      LOOP:  cpu time   18.8141: real time   18.8687

 eigenvalue-minimisations  :  1920
 total energy-change (2. order) :-0.8416993E+00  (-0.3586804E-01)
 number of electron     612.0000002 magnetization       2.3467007
 augmentation part       59.3795077 magnetization       0.9611538

 Broyden mixing:
  rms(total) = 0.39319E-01    rms(broyden)= 0.39231E-01
  rms(prec ) = 0.46907E-01
  weight for this iteration     100.00

 eigenvalues of (default mixing * dielectric matrix)
  average eigenvalue GAMMA=   1.3607
  3.8172  2.3130  1.4261  1.0588  0.7999  0.7999  0.6907  0.6907  0.6496

 Free energy of the ion-electron system (eV)
  ---------------------------------------------------
  alpha Z        PSCENC =       626.70725857
  Ewald energy   TEWEN  =     -5785.04764319
  -Hartree energ DENC   =    -30907.75112924
  -exchange      EXHF   =         0.00000000
  -V(xc)+E(xc)   XCENC  =      1742.71396180
  PAW double counting   =     27407.12005033   -26751.14057259
  entropy T*S    EENTRO =        -0.00000022
  eigenvalues    EBANDS =     -5419.18570311
  atomic energy  EATOM  =     38229.21038423
  Solvation  Ediel_sol  =         0.00000000
  ---------------------------------------------------
  free energy    TOTEN  =      -857.37339341 eV

  energy without entropy =     -857.37339319  energy(sigma->0) =     -857.37339330


--------------------------------------------------------------------------------------------------------




--------------------------------------- Iteration      1(  15)  ---------------------------------------


    POTLOK:  cpu time    0.5910: real time    0.5926
    SETDIJ:  cpu time    0.4590: real time    0.4601
     EDDAV:  cpu time   16.7511: real time   16.7931
       DOS:  cpu time    0.0005: real time    0.0005
    CHARGE:  cpu time    1.2826: real time    1.2858
    MIXING:  cpu time    0.0178: real time    0.0178
    --------------------------------------------
      LOOP:  cpu time   19.1020: real time   19.1499

 eigenvalue-minimisations  :  1960
 total energy-change (2. order) :-0.7797538E-01  (-0.2735054E-02)
 number of electron     612.0000002 magnetization       2.2064514
 augmentation part       59.3671061 magnetization       0.8484191

 Broyden mixing:
  rms(total) = 0.27843E-01    rms(broyden)= 0.27677E-01
  rms(prec ) = 0.33497E-01
  weight for this iteration     100.00

 eigenvalues of (default mixing * dielectric matrix)
  average eigenvalue GAMMA=   1.3270
  3.8656  2.2715  1.2756  1.1629  1.1629  0.6775  0.6775  0.7675  0.7675  0.6412

 Free energy of the ion-electron system (eV)
  ---------------------------------------------------
  alpha Z        PSCENC =       626.70725857
  Ewald energy   TEWEN  =     -5785.04764319
  -Hartree energ DENC   =    -30902.20812278
  -exchange      EXHF   =         0.00000000
  -V(xc)+E(xc)   XCENC  =      1742.46898031
  PAW double counting   =     27411.79231489   -26755.84516210
  entropy T*S    EENTRO =        -0.00000013
  eigenvalues    EBANDS =     -5424.52937859
  atomic energy  EATOM  =     38229.21038423
  Solvation  Ediel_sol  =         0.00000000
  ---------------------------------------------------
  free energy    TOTEN  =      -857.45136879 eV

  energy without entropy =     -857.45136866  energy(sigma->0) =     -857.45136872


--------------------------------------------------------------------------------------------------------




--------------------------------------- Iteration      1(  16)  ---------------------------------------


    POTLOK:  cpu time    0.5937: real time    0.5974
    SETDIJ:  cpu time    0.4626: real time    0.4637
     EDDAV:  cpu time   16.6501: real time   16.7078
       DOS:  cpu time    0.0005: real time    0.0005
    CHARGE:  cpu time    1.2996: real time    1.3029
    MIXING:  cpu time    0.0162: real time    0.0162
    --------------------------------------------
      LOOP:  cpu time   19.0228: real time   19.0885

 eigenvalue-minimisations  :  1944
 total energy-change (2. order) :-0.2231647E-01  (-0.7621855E-03)
 number of electron     612.0000002 magnetization       2.1561312
 augmentation part       59.3737674 magnetization       0.8051857

 Broyden mixing:
  rms(total) = 0.20027E-01    rms(broyden)= 0.19837E-01
  rms(prec ) = 0.24539E-01
  weight for this iteration     100.00

 eigenvalues of (default mixing * dielectric matrix)
  average eigenvalue GAMMA=   1.3452
  3.8776  2.1880  1.5800  1.5800  1.2338  0.8222  0.8222  0.6744  0.6744  0.7200
  0.6249

 Free energy of the ion-electron system (eV)
  ---------------------------------------------------
  alpha Z        PSCENC =       626.70725857
  Ewald energy   TEWEN  =     -5785.04764319
  -Hartree energ DENC   =    -30898.84049203
  -exchange      EXHF   =         0.00000000
  -V(xc)+E(xc)   XCENC  =      1742.35179977
  PAW double counting   =     27413.17677774   -26757.23082650
  entropy T*S    EENTRO =        -0.00000010
  eigenvalues    EBANDS =     -5427.80094374
  atomic energy  EATOM  =     38229.21038423
  Solvation  Ediel_sol  =         0.00000000
  ---------------------------------------------------
  free energy    TOTEN  =      -857.47368525 eV

  energy without entropy =     -857.47368515  energy(sigma->0) =     -857.47368520


--------------------------------------------------------------------------------------------------------




--------------------------------------- Iteration      1(  17)  ---------------------------------------


    POTLOK:  cpu time    0.5933: real time    0.5961
    SETDIJ:  cpu time    0.4628: real time    0.4641
     EDDAV:  cpu time   17.3811: real time   17.4248
       DOS:  cpu time    0.0005: real time    0.0005
    CHARGE:  cpu time    1.2930: real time    1.2962
    MIXING:  cpu time    0.0177: real time    0.0178
    --------------------------------------------
      LOOP:  cpu time   19.7485: real time   19.7994

 eigenvalue-minimisations  :  2048
 total energy-change (2. order) :-0.7833905E-02  (-0.2047184E-03)
 number of electron     612.0000002 magnetization       2.0605057
 augmentation part       59.3687770 magnetization       0.7138913

 Broyden mixing:
  rms(total) = 0.12663E-01    rms(broyden)= 0.12534E-01
  rms(prec ) = 0.16588E-01
  weight for this iteration     100.00

 eigenvalues of (default mixing * dielectric matrix)
  average eigenvalue GAMMA=   1.3901
  3.9490  2.2429  1.9139  1.9139  1.3135  1.0345  0.8203  0.8203  0.6770  0.6770
  0.7034  0.6157

 Free energy of the ion-electron system (eV)
  ---------------------------------------------------
  alpha Z        PSCENC =       626.70725857
  Ewald energy   TEWEN  =     -5785.04764319
  -Hartree energ DENC   =    -30896.68419830
  -exchange      EXHF   =         0.00000000
  -V(xc)+E(xc)   XCENC  =      1742.30210419
  PAW double counting   =     27416.68035806   -26760.74319796
  entropy T*S    EENTRO =        -0.00000028
  eigenvalues    EBANDS =     -5429.90658449
  atomic energy  EATOM  =     38229.21038423
  Solvation  Ediel_sol  =         0.00000000
  ---------------------------------------------------
  free energy    TOTEN  =      -857.48151916 eV

  energy without entropy =     -857.48151888  energy(sigma->0) =     -857.48151902


--------------------------------------------------------------------------------------------------------




--------------------------------------- Iteration      1(  18)  ---------------------------------------


    POTLOK:  cpu time    0.5920: real time    0.5935
    SETDIJ:  cpu time    0.4637: real time    0.4648
     EDDAV:  cpu time   16.4999: real time   16.5422
       DOS:  cpu time    0.0005: real time    0.0005
    CHARGE:  cpu time    1.3126: real time    1.3167
    MIXING:  cpu time    0.0185: real time    0.0185
    --------------------------------------------
      LOOP:  cpu time   18.8871: real time   18.9362

 eigenvalue-minimisations  :  1920
 total energy-change (2. order) :-0.6792670E-02  (-0.2565966E-03)
 number of electron     612.0000002 magnetization       2.0154710
 augmentation part       59.3720157 magnetization       0.6699613

 Broyden mixing:
  rms(total) = 0.64879E-02    rms(broyden)= 0.64618E-02
  rms(prec ) = 0.82163E-02
  weight for this iteration     100.00

 eigenvalues of (default mixing * dielectric matrix)
  average eigenvalue GAMMA=   1.3666
  4.0216  2.2785  1.8875  1.8875  1.5594  1.0240  0.8569  0.8018  0.8018  0.6817
  0.6817  0.6816  0.6021

 Free energy of the ion-electron system (eV)
  ---------------------------------------------------
  alpha Z        PSCENC =       626.70725857
  Ewald energy   TEWEN  =     -5785.04764319
  -Hartree energ DENC   =    -30891.86912656
  -exchange      EXHF   =         0.00000000
  -V(xc)+E(xc)   XCENC  =      1742.15114992
  PAW double counting   =     27419.39172817   -26763.46157809
  entropy T*S    EENTRO =        -0.00000019
  eigenvalues    EBANDS =     -5434.57048470
  atomic energy  EATOM  =     38229.21038423
  Solvation  Ediel_sol  =         0.00000000
  ---------------------------------------------------
  free energy    TOTEN  =      -857.48831183 eV

  energy without entropy =     -857.48831164  energy(sigma->0) =     -857.48831174


--------------------------------------------------------------------------------------------------------




--------------------------------------- Iteration      1(  19)  ---------------------------------------


    POTLOK:  cpu time    0.5941: real time    0.5957
    SETDIJ:  cpu time    0.4618: real time    0.4630
     EDDAV:  cpu time   17.2183: real time   17.2635
       DOS:  cpu time    0.0005: real time    0.0005
    CHARGE:  cpu time    1.3598: real time    1.3634
    MIXING:  cpu time    0.0204: real time    0.0204
    --------------------------------------------
      LOOP:  cpu time   19.6549: real time   19.7065

 eigenvalue-minimisations  :  2024
 total energy-change (2. order) :-0.1226712E-02  (-0.5550424E-04)
 number of electron     612.0000002 magnetization       2.0101025
 augmentation part       59.3717996 magnetization       0.6673513

 Broyden mixing:
  rms(total) = 0.53293E-02    rms(broyden)= 0.53207E-02
  rms(prec ) = 0.63382E-02
  weight for this iteration     100.00

 eigenvalues of (default mixing * dielectric matrix)
  average eigenvalue GAMMA=   1.3764
  4.0273  2.3565  2.3565  1.5838  1.5838  1.1535  1.1535  0.9179  0.7505  0.7505
  0.6877  0.6877  0.6542  0.6062

 Free energy of the ion-electron system (eV)
  ---------------------------------------------------
  alpha Z        PSCENC =       626.70725857
  Ewald energy   TEWEN  =     -5785.04764319
  -Hartree energ DENC   =    -30890.31712702
  -exchange      EXHF   =         0.00000000
  -V(xc)+E(xc)   XCENC  =      1742.10995893
  PAW double counting   =     27420.58685400   -26764.65848532
  entropy T*S    EENTRO =        -0.00000028
  eigenvalues    EBANDS =     -5436.08073847
  atomic energy  EATOM  =     38229.21038423
  Solvation  Ediel_sol  =         0.00000000
  ---------------------------------------------------
  free energy    TOTEN  =      -857.48953854 eV

  energy without entropy =     -857.48953826  energy(sigma->0) =     -857.48953840


--------------------------------------------------------------------------------------------------------




--------------------------------------- Iteration      1(  20)  ---------------------------------------


    POTLOK:  cpu time    0.5928: real time    0.5955
    SETDIJ:  cpu time    0.4617: real time    0.4628
     EDDAV:  cpu time   17.4984: real time   17.5425
[...]
   49        1.574   3.696   0.000   5.270
   50        1.570   3.720   0.000   5.290
   51        1.575   3.713   0.000   5.288
   52        1.578   3.691   0.000   5.268
   53        1.575   3.699   0.000   5.273
   54        1.576   3.676   0.000   5.252
   55        1.574   3.709   0.000   5.283
   56        1.573   3.701   0.000   5.274
   57        1.579   3.656   0.000   5.236
   58        1.574   3.694   0.000   5.267
   59        1.576   3.689   0.000   5.265
   60        1.573   3.709   0.000   5.283
   61        1.578   3.659   0.000   5.237
   62        1.568   3.725   0.000   5.293
   63        1.572   3.704   0.000   5.276
   64        1.577   3.687   0.000   5.264
   65        1.570   3.709   0.000   5.279
   66        1.577   3.657   0.000   5.234
   67        1.573   3.693   0.000   5.266
   68        1.576   3.703   0.000   5.279
   69        1.570   3.719   0.000   5.289
   70        1.570   3.722   0.000   5.292
   71        1.576   3.686   0.000   5.262
   72        1.576   3.656   0.000   5.231
   73        1.638   3.073   0.000   4.711
   74        0.639   0.991   0.000   1.630
   75        0.643   0.991   0.000   1.634
   76        0.646   1.002   0.000   1.648
   77        0.637   0.983   0.000   1.620
   78        0.641   0.994   0.000   1.635
   79        0.645   0.992   0.000   1.637
   80        0.638   0.988   0.000   1.626
   81        0.645   0.996   0.000   1.641
   82        0.638   0.985   0.000   1.624
   83        0.640   0.993   0.000   1.633
   84        0.640   0.994   0.000   1.635
   85        0.642   1.002   0.000   1.644
   86        0.645   0.993   0.000   1.638
   87        0.639   0.986   0.000   1.625
   88        0.640   0.991   0.000   1.632
   89        0.639   0.989   0.000   1.629
   90        0.643   0.993   0.000   1.636
   91        0.641   0.994   0.000   1.636
   92        0.646   0.996   0.000   1.642
   93        0.641   0.994   0.000   1.635
   94        0.640   0.991   0.000   1.631
   95        0.644   0.989   0.000   1.633
   96        0.643   0.990   0.000   1.632
   97        0.639   0.982   0.000   1.620
   98        0.641   0.999   0.000   1.640
   99        0.646   0.993   0.000   1.638
  100        0.643   0.989   0.000   1.631
  101        0.646   0.996   0.000   1.642
  102        0.642   0.991   0.000   1.634
  103        0.641   0.996   0.000   1.637
  104        0.643   0.994   0.000   1.636
  105        0.639   0.987   0.000   1.627
  106        0.638   0.985   0.000   1.623
  107        0.343   0.453   0.000   0.796
  108        0.341   0.454   0.000   0.795
  109        0.340   0.454   0.000   0.794
  110        0.113   0.064   9.211   9.387
  111        0.123   0.079   9.212   9.413
  112        0.289   0.185   8.894   9.368
--------------------------------------------------
tot        137.717 303.485  27.316 468.519
 


 magnetization (x)
 
# of ion       s       p       d       tot
------------------------------------------
    1        0.000   0.000   0.000   0.000
    2        0.000   0.002   0.000   0.002
    3        0.000   0.001   0.000   0.001
    4        0.000   0.000   0.000   0.000
    5        0.000   0.000   0.000   0.000
    6        0.000   0.003   0.000   0.003
    7       -0.000   0.000   0.000   0.000
    8        0.000   0.000   0.000   0.000
    9       -0.000   0.000   0.000   0.000
   10        0.000   0.000   0.000   0.000
   11       -0.000  -0.000   0.000  -0.000
   12        0.000   0.000   0.000   0.000
   13        0.000   0.001   0.000   0.001
   14       -0.000   0.000   0.000   0.000
   15       -0.000   0.000   0.000   0.000
   16        0.000   0.000   0.000   0.000
   17        0.000   0.004   0.000   0.004
   18        0.000   0.000   0.000   0.000
   19        0.000   0.000   0.000   0.000
   20       -0.000   0.000   0.000   0.000
   21        0.000   0.000   0.000   0.000
   22        0.000   0.000   0.000   0.000
   23        0.000   0.000   0.000   0.000
   24        0.000   0.001   0.000   0.001
   25        0.000   0.001   0.000   0.001
   26        0.000   0.000   0.000   0.000
   27        0.003   0.043   0.000   0.046
   28       -0.000   0.000   0.000   0.000
   29       -0.000   0.000   0.000   0.000
   30        0.000   0.000   0.000   0.000
   31       -0.000  -0.000   0.000  -0.000
   32        0.000   0.000   0.000   0.000
   33       -0.000   0.000   0.000   0.000
   34       -0.000   0.000   0.000   0.000
   35        0.000   0.003   0.000   0.003
   36        0.000   0.000   0.000   0.000
   37        0.000   0.000   0.000   0.000
   38        0.003   0.052   0.000   0.055
   39        0.000   0.000   0.000   0.000
   40       -0.000   0.000   0.000   0.000
   41        0.000   0.000   0.000   0.000
   42        0.000   0.000   0.000   0.000
   43        0.001   0.016   0.000   0.017
   44        0.000   0.000   0.000   0.000
   45        0.000   0.000   0.000   0.000
   46        0.000   0.000   0.000   0.000
   47        0.000  -0.000   0.000  -0.000
   48        0.000   0.000   0.000   0.000
   49        0.000   0.000   0.000   0.000
   50       -0.000   0.000   0.000   0.000
   51       -0.000   0.000   0.000   0.000
   52       -0.000   0.000   0.000   0.000
   53        0.000   0.000   0.000   0.001
   54        0.000   0.001   0.000   0.001
   55       -0.000   0.000   0.000   0.000
   56        0.000   0.003   0.000   0.003
   57        0.000   0.004   0.000   0.004
   58       -0.000   0.000   0.000   0.000
   59        0.000   0.000   0.000   0.000
   60        0.000   0.002   0.000   0.002
   61        0.000   0.000   0.000   0.000
   62       -0.000   0.000   0.000   0.000
   63        0.000   0.001   0.000   0.001
   64       -0.000  -0.000   0.000  -0.000
   65       -0.000   0.000   0.000   0.000
   66        0.000   0.000   0.000   0.000
   67        0.000   0.000   0.000   0.000
   68       -0.000   0.000   0.000   0.000
   69        0.000   0.000   0.000   0.000
   70       -0.000   0.000   0.000   0.000
   71        0.000   0.007   0.000   0.008
   72        0.000   0.000   0.000   0.000
   73        0.014   1.177   0.000   1.191
   74        0.000  -0.000   0.000   0.000
   75        0.000   0.000   0.000   0.000
   76       -0.000  -0.000   0.000  -0.000
   77       -0.000   0.000   0.000   0.000
   78       -0.000  -0.000   0.000  -0.000
   79       -0.000  -0.000   0.000  -0.000
   80        0.000   0.000   0.000   0.000
   81       -0.000  -0.000   0.000  -0.000
   82        0.000   0.000   0.000   0.000
   83       -0.000  -0.000   0.000  -0.000
   84       -0.000  -0.000   0.000  -0.000
   85       -0.000  -0.000   0.000  -0.000
   86        0.000   0.000   0.000   0.000
   87        0.000  -0.000   0.000  -0.000
   88       -0.000  -0.000   0.000  -0.000
   89       -0.000  -0.000   0.000  -0.000
   90       -0.000  -0.000   0.000  -0.000
   91       -0.000  -0.000   0.000  -0.000
   92        0.000   0.000   0.000   0.000
   93       -0.000  -0.000   0.000  -0.000
   94       -0.000  -0.000   0.000  -0.000
   95       -0.000   0.000   0.000   0.000
   96       -0.000  -0.000   0.000  -0.000
   97       -0.000   0.000   0.000   0.000
   98       -0.000  -0.000   0.000  -0.000
   99       -0.000  -0.000   0.000  -0.000
  100        0.000   0.000   0.000   0.001
  101       -0.000  -0.000   0.000  -0.000
  102       -0.000  -0.000   0.000  -0.000
  103       -0.000   0.000   0.000  -0.000
  104        0.000   0.000   0.000   0.000
  105        0.000   0.000   0.000   0.000
  106        0.000   0.000   0.000   0.000
  107       -0.000   0.000   0.000  -0.000
  108        0.000   0.000   0.000   0.000
  109       -0.000  -0.000   0.000  -0.000
  110       -0.000  -0.000   0.000   0.000
  111       -0.000  -0.000   0.000   0.000
  112       -0.017  -0.005   0.384   0.362
--------------------------------------------------
tot          0.005   1.320   0.384   1.709
 

 total amount of memory used by VASP MPI-rank0   207100. kBytes
=======================================================================

   base      :      30000. kBytes
   nonlr-proj:      18504. kBytes
   fftplans  :      63994. kBytes
   grid      :      56122. kBytes
   one-center:        870. kBytes
   wavefun   :      37610. kBytes
 
  
  
 General timing and accounting informations for this job:
 ========================================================
  
                  Total CPU time used (sec):     1211.855
                            User time (sec):     1179.048
                          System time (sec):       32.806
                         Elapsed time (sec):     1215.747
  
                   Maximum memory used (kb):      322044.
                   Average memory used (kb):           0.
  
                          Minor page faults:       590265
                          Major page faults:            8
                 Voluntary context switches:          815
    4ORBIT:  cpu time    0.0000: real time    0.0000
 


 total charge     
 
# of ion       s       p       d       tot
------------------------------------------
    1        1.574   3.694   0.000   5.268
    2        1.572   3.703   0.000   5.275
    3        1.576   3.700   0.000   5.276
    4        1.573   3.696   0.000   5.269
    5        1.572   3.702   0.000   5.274
    6        1.574   3.669   0.000   5.243
    7        1.575   3.708   0.000   5.283
    8        1.575   3.669   0.000   5.244
    9        1.577   3.673   0.000   5.250
   10        1.573   3.696   0.000   5.269
   11        1.574   3.702   0.000   5.276
   12        1.576   3.689   0.000   5.265
   13        1.570   3.717   0.000   5.287
   14        1.574   3.659   0.000   5.233
   15        1.571   3.717   0.000   5.288
   16        1.575   3.636   0.000   5.211
   17        1.574   3.684   0.000   5.259
   18        1.575   3.666   0.000   5.241
   19        1.573   3.708   0.000   5.282
   20        1.576   3.704   0.000   5.280
   21        1.578   3.699   0.000   5.277
   22        1.574   3.701   0.000   5.275
   23        1.577   3.702   0.000   5.279
   24        1.575   3.702   0.000   5.277
   25        1.574   3.703   0.000   5.277
   26        1.580   3.659   0.000   5.239
   27        1.574   3.639   0.000   5.213
   28        1.575   3.703   0.000   5.278
   29        1.576   3.713   0.000   5.289
   30        1.576   3.700   0.000   5.276
   31        1.576   3.710   0.000   5.286
   32        1.579   3.668   0.000   5.247
   33        1.577   3.701   0.000   5.278
   34        1.576   3.702   0.000   5.278
   35        1.576   3.704   0.000   5.281
   36        1.576   3.697   0.000   5.274
   37        1.573   3.712   0.000   5.285
   38        1.575   3.631   0.000   5.206
   39        1.570   3.735   0.000   5.305
   40        1.571   3.720   0.000   5.290
   41        1.571   3.727   0.000   5.298
   42        1.574   3.706   0.000   5.280
   43        1.575   3.713   0.000   5.288
   44        1.574   3.635   0.000   5.209
   45        1.577   3.702   0.000   5.279
   46        1.573   3.707   0.000   5.280
   47        1.570   3.723   0.000   5.293
   48        1.573   3.714   0.000   5.287
   49        1.574   3.696   0.000   5.270
   50        1.570   3.720   0.000   5.290
   51        1.575   3.713   0.000   5.288
   52        1.578   3.691   0.000   5.268
   53        1.575   3.699   0.000   5.273
   54        1.576   3.676   0.000   5.252
   55        1.574   3.709   0.000   5.283
   56        1.573   3.701   0.000   5.274
   57        1.579   3.656   0.000   5.236
   58        1.574   3.694   0.000   5.267
   59        1.576   3.689   0.000   5.265
   60        1.573   3.709   0.000   5.283
   61        1.578   3.659   0.000   5.237
   62        1.568   3.725   0.000   5.293
   63        1.572   3.704   0.000   5.276
   64        1.577   3.687   0.000   5.264
   65        1.570   3.709   0.000   5.279
   66        1.577   3.657   0.000   5.234
   67        1.573   3.693   0.000   5.266
   68        1.576   3.703   0.000   5.279
   69        1.570   3.719   0.000   5.289
   70        1.570   3.722   0.000   5.292
   71        1.576   3.686   0.000   5.262
   72        1.576   3.656   0.000   5.231
   73        1.638   3.073   0.000   4.711
   74        0.639   0.991   0.000   1.630
   75        0.643   0.991   0.000   1.634
   76        0.646   1.002   0.000   1.648
   77        0.637   0.983   0.000   1.620
   78        0.641   0.994   0.000   1.635
   79        0.645   0.992   0.000   1.637
   80        0.638   0.988   0.000   1.626
   81        0.645   0.996   0.000   1.641
   82        0.638   0.985   0.000   1.624
   83        0.640   0.993   0.000   1.633
   84        0.640   0.994   0.000   1.635
   85        0.642   1.002   0.000   1.644
   86        0.645   0.993   0.000   1.638
   87        0.639   0.986   0.000   1.625
   88        0.640   0.991   0.000   1.632
   89        0.639   0.989   0.000   1.629
   90        0.643   0.993   0.000   1.636
   91        0.641   0.994   0.000   1.636
   92        0.646   0.996   0.000   1.642
   93        0.641   0.994   0.000   1.635
   94        0.640   0.991   0.000   1.631
   95        0.644   0.989   0.000   1.633
   96        0.643   0.990   0.000   1.632
   97        0.639   0.982   0.000   1.620
   98        0.641   0.999   0.000   1.640
   99        0.646   0.993   0.000   1.638
  100        0.643   0.989   0.000   1.631
  101        0.646   0.996   0.000   1.642
  102        0.642   0.991   0.000   1.634
  103        0.641   0.996   0.000   1.637
  104        0.643   0.994   0.000   1.636
  105        0.639   0.987   0.000   1.627
  106        0.638   0.985   0.000   1.623
  107        0.343   0.453   0.000   0.796
  108        0.341   0.454   0.000   0.795
  109        0.340   0.454   0.000   0.794
  110        0.113   0.064   9.211   9.387
  111        0.123   0.079   9.212   9.413
  112        0.289   0.185   8.894   9.368
--------------------------------------------------
tot        137.717 303.485  27.316 468.519
 


 magnetization (x)
 
# of ion       s       p       d       tot
------------------------------------------
    1        0.000   0.000   0.000   0.000
    2        0.000   0.002   0.000   0.002
    3        0.000   0.001   0.000   0.001
    4        0.000   0.000   0.000   0.000
    5        0.000   0.000   0.000   0.000
    6        0.000   0.003   0.000   0.003
    7       -0.000   0.000   0.000   0.000
    8        0.000   0.000   0.000   0.000
    9       -0.000   0.000   0.000   0.000
   10        0.000   0.000   0.000   0.000
   11       -0.000  -0.000   0.000  -0.000
   12        0.000   0.000   0.000   0.000
   13        0.000   0.001   0.000   0.001
   14       -0.000   0.000   0.000   0.000
   15       -0.000   0.000   0.000   0.000
   16        0.000   0.000   0.000   0.000
   17        0.000   0.004   0.000   0.004
   18        0.000   0.000   0.000   0.000
   19        0.000   0.000   0.000   0.000
   20       -0.000   0.000   0.000   0.000
   21        0.000   0.000   0.000   0.000
   22        0.000   0.000   0.000   0.000
   23        0.000   0.000   0.000   0.000
   24        0.000   0.001   0.000   0.001
   25        0.000   0.001   0.000   0.001
   26        0.000   0.000   0.000   0.000
   27        0.003   0.043   0.000   0.046
   28       -0.000   0.000   0.000   0.000
   29       -0.000   0.000   0.000   0.000
   30        0.000   0.000   0.000   0.000
   31       -0.000  -0.000   0.000  -0.000
   32        0.000   0.000   0.000   0.000
   33       -0.000   0.000   0.000   0.000
   34       -0.000   0.000   0.000   0.000
   35        0.000   0.003   0.000   0.003
   36        0.000   0.000   0.000   0.000
   37        0.000   0.000   0.000   0.000
   38        0.003   0.052   0.000   0.055
   39        0.000   0.000   0.000   0.000
   40       -0.000   0.000   0.000   0.000
   41        0.000   0.000   0.000   0.000
   42        0.000   0.000   0.000   0.000
   43        0.001   0.016   0.000   0.017
   44        0.000   0.000   0.000   0.000
   45        0.000   0.000   0.000   0.000
   46        0.000   0.000   0.000   0.000
   47        0.000  -0.000   0.000  -0.000
   48        0.000   0.000   0.000   0.000
   49        0.000   0.000   0.000   0.000
   50       -0.000   0.000   0.000   0.000
   51       -0.000   0.000   0.000   0.000
   52       -0.000   0.000   0.000   0.000
   53        0.000   0.000   0.000   0.001
   54        0.000   0.001   0.000   0.001
   55       -0.000   0.000   0.000   0.000
   56        0.000   0.003   0.000   0.003
   57        0.000   0.004   0.000   0.004
   58       -0.000   0.000   0.000   0.000
   59        0.000   0.000   0.000   0.000
   60        0.000   0.002   0.000   0.002
   61        0.000   0.000   0.000   0.000
   62       -0.000   0.000   0.000   0.000
   63        0.000   0.001   0.000   0.001
   64       -0.000  -0.000   0.000  -0.000
   65       -0.000   0.000   0.000   0.000
   66        0.000   0.000   0.000   0.000
   67        0.000   0.000   0.000   0.000
   68       -0.000   0.000   0.000   0.000
   69        0.000   0.000   0.000   0.000
   70       -0.000   0.000   0.000   0.000
   71        0.000   0.007   0.000   0.008
   72        0.000   0.000   0.000   0.000
   73        0.014   1.177   0.000   1.191
   74        0.000  -0.000   0.000   0.000
   75        0.000   0.000   0.000   0.000
   76       -0.000  -0.000   0.000  -0.000
   77       -0.000   0.000   0.000   0.000
   78       -0.000  -0.000   0.000  -0.000
   79       -0.000  -0.000   0.000  -0.000
   80        0.000   0.000   0.000   0.000
   81       -0.000  -0.000   0.000  -0.000
   82        0.000   0.000   0.000   0.000
   83       -0.000  -0.000   0.000  -0.000
   84       -0.000  -0.000   0.000  -0.000
   85       -0.000  -0.000   0.000  -0.000
   86        0.000   0.000   0.000   0.000
   87        0.000  -0.000   0.000  -0.000
   88       -0.000  -0.000   0.000  -0.000
   89       -0.000  -0.000   0.000  -0.000
   90       -0.000  -0.000   0.000  -0.000
   91       -0.000  -0.000   0.000  -0.000
   92        0.000   0.000   0.000   0.000
   93       -0.000  -0.000   0.000  -0.000
   94       -0.000  -0.000   0.000  -0.000
   95       -0.000   0.000   0.000   0.000
   96       -0.000  -0.000   0.000  -0.000
   97       -0.000   0.000   0.000   0.000
   98       -0.000  -0.000   0.000  -0.000
   99       -0.000  -0.000   0.000  -0.000
  100        0.000   0.000   0.000   0.001
  101       -0.000  -0.000   0.000  -0.000
  102       -0.000  -0.000   0.000  -0.000
  103       -0.000   0.000   0.000  -0.000
  104        0.000   0.000   0.000   0.000
  105        0.000   0.000   0.000   0.000
  106        0.000   0.000   0.000   0.000
  107       -0.000   0.000   0.000  -0.000
  108        0.000   0.000   0.000   0.000
  109       -0.000  -0.000   0.000  -0.000
  110       -0.000  -0.000   0.000   0.000
  111       -0.000  -0.000   0.000   0.000
  112       -0.017  -0.005   0.384   0.362
--------------------------------------------------
tot          0.005   1.320   0.384   1.709
 

 total amount of memory used by VASP MPI-rank0   207100. kBytes
=======================================================================

   base      :      30000. kBytes
   nonlr-proj:      18504. kBytes
   fftplans  :      63994. kBytes
   grid      :      56122. kBytes
   one-center:        870. kBytes
   wavefun   :      37610. kBytes
 
  
  
 General timing and accounting informations for this job:
 ========================================================
  
                  Total CPU time used (sec):     1222.155
                            User time (sec):     1189.628
                          System time (sec):       32.527
                         Elapsed time (sec):     1226.536
  
                   Maximum memory used (kb):      323368.
                   Average memory used (kb):           0.
  
                          Minor page faults:       567866
                          Major page faults:            7
                 Voluntary context switches:          840
