>>>  VASP 5.4.4 with BEEF-vdw and vtst
--------------------------------------------------------
>>>  Job information
     SLURM_JOBID=8766744
     SLURM_JOB_NODELIST=cpn-q08-31-01
     SLURM_NNODES=1
     SLURMTMPDIR=/scratch/8766744
     working directory = /projects/academic/ericwalk/ruthbell/Ads_Ag-SSZ13/SO2_gas/PBE
--------------------------------------------------------
>>>  Module information
--------------------------------------------------------
>>>  Running Configuration
NPROCS=16
--------------------------------------------------------
>>>  Job started at Wed Jun 29 12:07:47 EDT 2022
--------------------------------------------------------
 running on   16 total cores
 distrk:  each k-point on   16 cores,    1 groups
 distr:  one band on    4 cores,    4 groups
 using from now: INCAR     
 vasp.5.4.4.18Apr17-6-g9f103f2a35 (build Dec 31 2018 11:41:54) complex          
  
 POSCAR found type information on POSCAR  O  S 
 POSCAR found :  2 types and       3 ions
 scaLAPACK will be used

 ----------------------------------------------------------------------------- 
|                                                                             |
|  ADVICE TO THIS USER RUNNING 'VASP/VAMP'   (HEAR YOUR MASTER'S VOICE ...):  |
|                                                                             |
|      You have a (more or less) 'small supercell' and for smaller cells      |
|      it is recommended  to use the reciprocal-space projection scheme!      |
|      The real space optimization is not  efficient for small cells and it   |
|      is also less accurate ...                                              |
|      Therefore set LREAL=.FALSE. in the  INCAR file                         |
|                                                                             |
 ----------------------------------------------------------------------------- 

 LDA part: xc-table for Pade appr. of Perdew
 POSCAR found type information on POSCAR  O  S 
 POSCAR found :  2 types and       3 ions
 POSCAR, INCAR and KPOINTS ok, starting setup
 FFT: planning ...
 WAVECAR not read
 entering main loop
       N       E                     dE             d eps       ncg     rms          rms(c)
DAV:   1     0.133532082510E+03    0.13353E+03   -0.40415E+03    96   0.461E+02
DAV:   2     0.136421400025E+02   -0.11989E+03   -0.11839E+03   128   0.123E+02
DAV:   3    -0.159188558964E+02   -0.29561E+02   -0.29398E+02    80   0.623E+01
DAV:   4    -0.183092135698E+02   -0.23904E+01   -0.23869E+01    64   0.180E+01
DAV:   5    -0.183491607820E+02   -0.39947E-01   -0.39794E-01    80   0.255E+00    0.146E+01
DAV:   6    -0.697424264222E+01    0.11375E+02   -0.19978E+01    64   0.316E+01    0.461E+00
DAV:   7    -0.111333157898E+02   -0.41591E+01   -0.40449E+00    72   0.124E+01    0.286E+00
DAV:   8    -0.126053124959E+02   -0.14720E+01   -0.62662E-01    96   0.549E+00    0.166E+00
DAV:   9    -0.140942305490E+02   -0.14889E+01   -0.71582E-01    72   0.425E+00    0.549E-01
DAV:  10    -0.145380844343E+02   -0.44385E+00   -0.70058E-02    88   0.162E+00    0.309E-01
DAV:  11    -0.151156578294E+02   -0.57757E+00   -0.27807E-02    64   0.770E-01    0.162E-01
DAV:  12    -0.153469430536E+02   -0.23129E+00   -0.76265E-03    88   0.383E-01    0.962E-02
DAV:  13    -0.154800512338E+02   -0.13311E+00   -0.27292E-03    80   0.239E-01    0.562E-02
DAV:  14    -0.155048358312E+02   -0.24785E-01   -0.20801E-03    80   0.193E-01    0.318E-02
DAV:  15    -0.155061231687E+02   -0.12873E-02   -0.27269E-04    88   0.890E-02    0.249E-02
DAV:  16    -0.155093882804E+02   -0.32651E-02   -0.40570E-04    64   0.103E-01    0.159E-02
DAV:  17    -0.155128411797E+02   -0.34529E-02   -0.26328E-04    72   0.761E-02    0.109E-02
DAV:  18    -0.155159349734E+02   -0.30938E-02   -0.89632E-05    88   0.463E-02    0.619E-03
DAV:  19    -0.155176774590E+02   -0.17425E-02   -0.32170E-05    72   0.275E-02    0.324E-03
DAV:  20    -0.155178971053E+02   -0.21965E-03   -0.86906E-06    72   0.151E-02    0.187E-03
DAV:  21    -0.155178916469E+02    0.54584E-05   -0.34540E-06    64   0.111E-02
   1 F= -.15517892E+02 E0= -.15517892E+02  d E =-.155179E+02  mag=     0.0012
 BRION: g(F)=  0.110E+02 g(S)=  0.000E+00
 bond charge predicted
       N       E                     dE             d eps       ncg     rms          rms(c)
DAV:   1     0.245240247631E+01    0.17970E+02   -0.16781E+03    64   0.294E+02    0.102E+01
DAV:   2    -0.716677946669E+01   -0.96192E+01   -0.10828E+02    80   0.696E+01    0.104E+01
DAV:   3    -0.572326397313E+01    0.14435E+01   -0.32062E+00    96   0.117E+01    0.759E+00
DAV:   4    -0.535530610711E+01    0.36796E+00   -0.46637E-01    80   0.582E+00    0.456E+00
DAV:   5    -0.520718959597E+01    0.14812E+00   -0.15104E+00    80   0.835E+00    0.597E+00
DAV:   6    -0.498555231546E+01    0.22164E+00   -0.33072E-01    96   0.379E+00    0.149E+00
DAV:   7    -0.497655762442E+01    0.89947E-02   -0.39353E-02    64   0.135E+00    0.462E-01
DAV:   8    -0.497984269290E+01   -0.32851E-02   -0.23198E-02    80   0.931E-01    0.201E-01
DAV:   9    -0.498336076976E+01   -0.35181E-02   -0.36835E-03    88   0.348E-01    0.305E-01
DAV:  10    -0.498381701076E+01   -0.45624E-03   -0.29639E-04    88   0.102E-01    0.305E-01
DAV:  11    -0.498390321278E+01   -0.86202E-04   -0.46430E-03    96   0.347E-01    0.213E-01
DAV:  12    -0.498688011983E+01   -0.29769E-02   -0.10717E-02   104   0.310E-01    0.207E-01
DAV:  13    -0.499057987697E+01   -0.36998E-02   -0.91357E-04    72   0.133E-01    0.205E-01
DAV:  14    -0.498901003327E+01    0.15698E-02   -0.85505E-04    72   0.106E-01    0.184E-01
DAV:  15    -0.499055956654E+01   -0.15495E-02   -0.85555E-03    80   0.210E-01    0.926E-02
DAV:  16    -0.499565625039E+01   -0.50967E-02   -0.81250E-04    72   0.147E-01    0.389E-02
DAV:  17    -0.499810712180E+01   -0.24509E-02   -0.79910E-04    88   0.107E-01    0.474E-02
DAV:  18    -0.499875582658E+01   -0.64870E-03   -0.35628E-04    80   0.602E-02    0.196E-02
DAV:  19    -0.499986831827E+01   -0.11125E-02   -0.12019E-04    88   0.450E-02    0.196E-02
DAV:  20    -0.500011975298E+01   -0.25143E-03   -0.11517E-04    80   0.289E-02    0.982E-03
DAV:  21    -0.500035863899E+01   -0.23889E-03   -0.80180E-06    64   0.150E-02    0.424E-03
DAV:  22    -0.500050563884E+01   -0.14700E-03   -0.12054E-05    64   0.137E-02    0.314E-03
DAV:  23    -0.500057261670E+01   -0.66978E-04   -0.37238E-06    64   0.932E-03    0.206E-03
DAV:  24    -0.500063229223E+01   -0.59676E-04   -0.31225E-06    48   0.747E-03    0.193E-03
DAV:  25    -0.500064552530E+01   -0.13233E-04   -0.10674E-06    64   0.471E-03    0.127E-03
DAV:  26    -0.500065654643E+01   -0.11021E-04   -0.58446E-07    56   0.286E-03    0.418E-04
DAV:  27    -0.500066199199E+01   -0.54456E-05   -0.25613E-07    64   0.207E-03
   2 F= -.50006620E+01 E0= -.50006620E+01  d E =0.105172E+02  mag=     0.0000
 BRION: g(F)=  0.372E+03 g(S)=  0.000E+00 retain N=  1 mean eig= 0.08
 eig:   0.084
 bond charge predicted
       N       E                     dE             d eps       ncg     rms          rms(c)
DAV:   1    -0.132575233284E+02   -0.82569E+01   -0.68425E+02    64   0.166E+02    0.155E+01
DAV:   2    -0.197868715792E+02   -0.65293E+01   -0.64750E+01    80   0.396E+01    0.183E+01
DAV:   3    -0.127459453798E+02    0.70409E+01   -0.11030E+01    80   0.236E+01    0.649E+00
DAV:   4    -0.122839882307E+02    0.46196E+00   -0.19218E+00    80   0.990E+00    0.417E+00
DAV:   5    -0.121556535903E+02    0.12833E+00   -0.20337E-01    80   0.370E+00    0.284E+00
DAV:   6    -0.121718130890E+02   -0.16159E-01   -0.22759E-01    96   0.384E+00    0.321E+00
DAV:   7    -0.120939135896E+02    0.77899E-01   -0.99690E-02    80   0.235E+00    0.142E+00
DAV:   8    -0.120914204740E+02    0.24931E-02   -0.10839E-02    64   0.838E-01    0.291E-01
DAV:   9    -0.120964075490E+02   -0.49871E-02   -0.63487E-03    96   0.513E-01    0.276E-01
DAV:  10    -0.120978095172E+02   -0.14020E-02   -0.63386E-03    80   0.184E-01    0.415E-01
DAV:  11    -0.120902131163E+02    0.75964E-02   -0.80177E-03    64   0.214E-01    0.142E-01
DAV:  12    -0.120969264387E+02   -0.67133E-02   -0.19859E-03    80   0.203E-01    0.196E-01
DAV:  13    -0.121003239139E+02   -0.33975E-02   -0.79614E-04    80   0.173E-01    0.130E-01
DAV:  14    -0.121000331683E+02    0.29075E-03   -0.35328E-04    72   0.122E-01    0.170E-01
DAV:  15    -0.121020486381E+02   -0.20155E-02   -0.45003E-04    72   0.115E-01    0.182E-01
DAV:  16    -0.121036088562E+02   -0.15602E-02   -0.89650E-04    80   0.158E-01    0.985E-02
DAV:  17    -0.121043035427E+02   -0.69469E-03   -0.25260E-04    80   0.849E-02    0.108E-01
DAV:  18    -0.121047405388E+02   -0.43700E-03   -0.42055E-05    80   0.563E-02    0.300E-02
DAV:  19    -0.121051404640E+02   -0.39993E-03   -0.37549E-05    80   0.411E-02    0.350E-02
DAV:  20    -0.121052269289E+02   -0.86465E-04   -0.37868E-06    72   0.178E-02    0.203E-02
DAV:  21    -0.121053408907E+02   -0.11396E-03   -0.65840E-06    64   0.151E-02    0.387E-03
DAV:  22    -0.121053791308E+02   -0.38240E-04   -0.19285E-06    64   0.878E-03    0.418E-03
DAV:  23    -0.121054094694E+02   -0.30339E-04   -0.99090E-07    64   0.566E-03    0.310E-03
DAV:  24    -0.121054378363E+02   -0.28367E-04   -0.12424E-06    64   0.540E-03    0.276E-03
DAV:  25    -0.121054445138E+02   -0.66775E-05   -0.34465E-07    64   0.323E-03
   3 F= -.12105445E+02 E0= -.12105120E+02  d E =-.710478E+01  mag=    -0.0000
 BRION: g(F)=  0.705E+01 g(S)=  0.000E+00 retain N=  1 mean eig= 0.08
 eig:   0.085
 bond charge predicted
       N       E                     dE             d eps       ncg     rms          rms(c)
DAV:   1    -0.143079529513E+02   -0.22025E+01   -0.47279E+02    64   0.142E+02    0.406E+00
DAV:   2    -0.160402155213E+02   -0.17323E+01   -0.19684E+01    64   0.312E+01    0.352E+00
DAV:   3    -0.159555026549E+02    0.84713E-01   -0.50958E-01    96   0.628E+00    0.187E+00
DAV:   4    -0.159221688073E+02    0.33334E-01   -0.12942E-01   112   0.349E+00    0.162E+00
DAV:   5    -0.159054058171E+02    0.16763E-01   -0.11092E-01    80   0.246E+00    0.337E-01
DAV:   6    -0.159074040645E+02   -0.19982E-02   -0.15302E-02    80   0.911E-01    0.219E-01
DAV:   7    -0.159083284442E+02   -0.92438E-03   -0.34215E-03    64   0.375E-01    0.933E-02
DAV:   8    -0.159106486400E+02   -0.23202E-02   -0.12028E-03    96   0.235E-01    0.485E-02
DAV:   9    -0.159137825132E+02   -0.31339E-02   -0.97364E-04    80   0.170E-01    0.269E-02
DAV:  10    -0.159147731891E+02   -0.99068E-03   -0.11152E-04    96   0.593E-02    0.183E-02
DAV:  11    -0.159162546381E+02   -0.14814E-02   -0.28450E-04    80   0.751E-02    0.946E-03
DAV:  12    -0.159165024325E+02   -0.24779E-03   -0.20897E-05    96   0.235E-02    0.562E-03
DAV:  13    -0.159168314986E+02   -0.32907E-03   -0.10700E-05    64   0.171E-02    0.320E-03
DAV:  14    -0.159169592687E+02   -0.12777E-03   -0.86002E-06    80   0.120E-02    0.215E-03
DAV:  15    -0.159170201402E+02   -0.60871E-04   -0.24806E-06    80   0.744E-03    0.136E-03
DAV:  16    -0.159170672971E+02   -0.47157E-04   -0.20722E-06    48   0.608E-03    0.848E-04
DAV:  17    -0.159170857621E+02   -0.18465E-04   -0.65605E-07    80   0.369E-03    0.718E-04
DAV:  18    -0.159171118674E+02   -0.26105E-04   -0.71241E-07    48   0.343E-03    0.424E-04
DAV:  19    -0.159171157482E+02   -0.38808E-05   -0.15152E-07    80   0.187E-03
   4 F= -.15917116E+02 E0= -.15917116E+02  d E =-.381167E+01  mag=     0.0000
 BRION: g(F)=  0.504E+01 g(S)=  0.000E+00 retain N=  2 mean eig= 1.14
 eig:   0.085  2.191
 bond charge predicted
       N       E                     dE             d eps       ncg     rms          rms(c)
DAV:   1     0.540862864549E+02    0.70003E+02   -0.18806E+03    64   0.284E+02    0.180E+01
DAV:   2     0.532957339648E+02   -0.79055E+00   -0.87679E+01    80   0.706E+01    0.142E+01
DAV:   3     0.568344826390E+02    0.35387E+01   -0.24277E+01    96   0.457E+01    0.440E+00
DAV:   4     0.570989085035E+02    0.26443E+00   -0.27786E+00    64   0.171E+01    0.200E+00
DAV:   5     0.571774223173E+02    0.78514E-01   -0.27352E-01    96   0.415E+00    0.500E-01
DAV:   6     0.571790522020E+02    0.16299E-02   -0.39351E-02    64   0.152E+00    0.287E-01
DAV:   7     0.571782239209E+02   -0.82828E-03   -0.77853E-03    80   0.806E-01    0.140E-01
DAV:   8     0.571752232268E+02   -0.30007E-02   -0.39320E-03    80   0.410E-01    0.990E-02
DAV:   9     0.571710535869E+02   -0.41696E-02   -0.19375E-03    80   0.367E-01    0.610E-02
DAV:  10     0.571646675048E+02   -0.63861E-02   -0.28003E-03    96   0.259E-01    0.620E-02
DAV:  11     0.571627314045E+02   -0.19361E-02   -0.51033E-04    96   0.178E-01    0.204E-02
DAV:  12     0.571608247161E+02   -0.19067E-02   -0.29792E-04    80   0.822E-02    0.195E-02
DAV:  13     0.571602232105E+02   -0.60151E-03   -0.52846E-05    80   0.510E-02    0.778E-03
DAV:  14     0.571598048808E+02   -0.41833E-03   -0.28517E-05    80   0.273E-02    0.429E-03
DAV:  15     0.571596530399E+02   -0.15184E-03   -0.75448E-06    64   0.142E-02    0.357E-03
DAV:  16     0.571595352602E+02   -0.11778E-03   -0.70671E-06    48   0.126E-02    0.204E-03
DAV:  17     0.571594639445E+02   -0.71316E-04   -0.42532E-06    64   0.119E-02    0.181E-03
DAV:  18     0.571594316898E+02   -0.32255E-04   -0.12863E-06    48   0.649E-03    0.138E-03
DAV:  19     0.571594163075E+02   -0.15382E-04   -0.63269E-07    64   0.541E-03    0.505E-04
DAV:  20     0.571594082765E+02   -0.80310E-05   -0.20799E-07    48   0.263E-03
   5 F= 0.57159408E+02 E0= 0.57159408E+02  d E =0.730765E+02  mag=    -0.0000
 BRION: g(F)=  0.191E+05 g(S)=  0.000E+00 retain N=  3 mean eig= 1.64
 eig:   0.085  2.145  2.679
 bond charge predicted
       N       E                     dE             d eps       ncg     rms          rms(c)
DAV:   1    -0.204627496514E+02   -0.77622E+02   -0.19934E+03    64   0.328E+02    0.200E+01
DAV:   2    -0.186308527919E+02    0.18319E+01   -0.60006E+01    96   0.511E+01    0.116E+01
DAV:   3    -0.164643294471E+02    0.21665E+01   -0.65369E+00   112   0.257E+01    0.784E+00
DAV:   4    -0.157844579754E+02    0.67987E+00   -0.25954E+00    96   0.154E+01    0.301E+00
DAV:   5    -0.156800540347E+02    0.10440E+00   -0.62513E-01    80   0.687E+00    0.118E+00
DAV:   6    -0.156689789788E+02    0.11075E-01   -0.88605E-02    64   0.223E+00    0.433E-01
DAV:   7    -0.156709896483E+02   -0.20107E-02   -0.21064E-02    80   0.104E+00    0.207E-01
DAV:   8    -0.156736123239E+02   -0.26227E-02   -0.22036E-03    96   0.370E-01    0.104E-01
DAV:   9    -0.156779229696E+02   -0.43106E-02   -0.22820E-03    96   0.321E-01    0.678E-02
DAV:  10    -0.156819593206E+02   -0.40364E-02   -0.15657E-03    96   0.236E-01    0.772E-02
DAV:  11    -0.156852522711E+02   -0.32930E-02   -0.94894E-04    80   0.202E-01    0.203E-02
DAV:  12    -0.156865103484E+02   -0.12581E-02   -0.17315E-04    96   0.752E-02    0.176E-02
DAV:  13    -0.156874649834E+02   -0.95464E-03   -0.69779E-05    96   0.460E-02    0.955E-03
DAV:  14    -0.156878386299E+02   -0.37365E-03   -0.16415E-05    64   0.223E-02    0.358E-03
DAV:  15    -0.156879957485E+02   -0.15712E-03   -0.93635E-06    64   0.159E-02    0.330E-03
DAV:  16    -0.156881015417E+02   -0.10579E-03   -0.50640E-06    48   0.148E-02    0.167E-03
DAV:  17    -0.156881670069E+02   -0.65465E-04   -0.39028E-06    64   0.117E-02    0.150E-03
DAV:  18    -0.156881869641E+02   -0.19957E-04   -0.79223E-07    80   0.513E-03    0.609E-04
DAV:  19    -0.156882096095E+02   -0.22645E-04   -0.55246E-07    64   0.351E-03    0.419E-04
DAV:  20    -0.156882133121E+02   -0.37026E-05   -0.12955E-07    72   0.188E-03
   6 F= -.15688213E+02 E0= -.15688213E+02  d E =-.728476E+02  mag=     0.0000
 BRION: g(F)=  0.563E+01 g(S)=  0.000E+00 retain N=  1 mean eig= 0.02
 eig:   0.021
 bond charge predicted
       N       E                     dE             d eps       ncg     rms          rms(c)
DAV:   1    -0.706404140373E+01    0.86242E+01   -0.58388E+02    64   0.175E+02    0.752E+00
DAV:   2    -0.846146577284E+01   -0.13974E+01   -0.26575E+01    96   0.370E+01    0.606E+00
DAV:   3    -0.784949643444E+01    0.61197E+00   -0.17068E+00    96   0.108E+01    0.260E+00
DAV:   4    -0.771500112292E+01    0.13450E+00   -0.35803E-01    80   0.497E+00    0.134E+00
DAV:   5    -0.769093048463E+01    0.24071E-01   -0.93161E-02    96   0.220E+00    0.627E-01
DAV:   6    -0.768318635410E+01    0.77441E-02   -0.31856E-02    64   0.138E+00    0.195E-01
DAV:   7    -0.768517647598E+01   -0.19901E-02   -0.72391E-03    80   0.536E-01    0.118E-01
DAV:   8    -0.768748244563E+01   -0.23060E-02   -0.20386E-03    80   0.373E-01    0.644E-02
DAV:   9    -0.769260111432E+01   -0.51187E-02   -0.22194E-03   112   0.285E-01    0.506E-02
DAV:  10    -0.769459910811E+01   -0.19980E-02   -0.59655E-04    96   0.176E-01    0.306E-02
DAV:  11    -0.769723707074E+01   -0.26380E-02   -0.46181E-04    96   0.106E-01    0.137E-02
DAV:  12    -0.769779974502E+01   -0.56267E-03   -0.53310E-05   112   0.430E-02    0.853E-03
DAV:  13    -0.769844580357E+01   -0.64606E-03   -0.29698E-05    96   0.253E-02    0.362E-03
DAV:  14    -0.769868396694E+01   -0.23816E-03   -0.89861E-06    80   0.122E-02    0.226E-03
DAV:  15    -0.769878353767E+01   -0.99571E-04   -0.44157E-06    64   0.933E-03    0.135E-03
DAV:  16    -0.769882142671E+01   -0.37889E-04   -0.13591E-06    64   0.600E-03    0.103E-03
DAV:  17    -0.769886114945E+01   -0.39723E-04   -0.12702E-06    80   0.512E-03    0.690E-04
DAV:  18    -0.769887306895E+01   -0.11919E-04   -0.40161E-07    80   0.311E-03    0.433E-04
DAV:  19    -0.769888028069E+01   -0.72117E-05   -0.16803E-07    80   0.191E-03
   7 F= -.76988803E+01 E0= -.76988803E+01  d E =0.798933E+01  mag=     0.0000
 BRION: g(F)=  0.487E+03 g(S)=  0.000E+00 retain N=  2 mean eig= 0.05
 eig:   0.046  0.046
 bond charge predicted
       N       E                     dE             d eps       ncg     rms          rms(c)
DAV:   1    -0.166459418583E+02   -0.89471E+01   -0.56190E+02    64   0.173E+02    0.898E+00
DAV:   2    -0.164660123556E+02    0.17993E+00   -0.15999E+01    96   0.278E+01    0.452E+00
DAV:   3    -0.161013972984E+02    0.36462E+00   -0.73405E-01    80   0.829E+00    0.252E+00
DAV:   4    -0.160428954675E+02    0.58502E-01   -0.41555E-01    96   0.558E+00    0.122E+00
DAV:   5    -0.160197991905E+02    0.23096E-01   -0.10905E-01    96   0.296E+00    0.570E-01
DAV:   6    -0.160193875259E+02    0.41166E-03   -0.11286E-02    64   0.872E-01    0.259E-01
DAV:   7    -0.160211903595E+02   -0.18028E-02   -0.71298E-03    80   0.599E-01    0.117E-01
DAV:   8    -0.160226865101E+02   -0.14962E-02   -0.79750E-04    80   0.201E-01    0.532E-02
DAV:   9    -0.160257033718E+02   -0.30169E-02   -0.98366E-04    80   0.190E-01    0.430E-02
DAV:  10    -0.160275004862E+02   -0.17971E-02   -0.36276E-04    96   0.104E-01    0.222E-02
DAV:  11    -0.160292628161E+02   -0.17623E-02   -0.36697E-04    80   0.858E-02    0.143E-02
DAV:  12    -0.160299259320E+02   -0.66312E-03   -0.60955E-05    96   0.471E-02    0.117E-02
DAV:  13    -0.160303666544E+02   -0.44072E-03   -0.23522E-05    96   0.351E-02    0.536E-03
DAV:  14    -0.160305182163E+02   -0.15156E-03   -0.48919E-06    80   0.147E-02    0.259E-03
DAV:  15    -0.160305829871E+02   -0.64771E-04   -0.29021E-06    64   0.854E-03    0.165E-03
DAV:  16    -0.160306176251E+02   -0.34638E-04   -0.92967E-07    64   0.622E-03    0.914E-04
DAV:  17    -0.160306558346E+02   -0.38210E-04   -0.13267E-06    64   0.554E-03    0.984E-04
DAV:  18    -0.160306647370E+02   -0.89023E-05   -0.29878E-07    80   0.270E-03
   8 F= -.16030665E+02 E0= -.16030665E+02  d E =-.833178E+01  mag=    -0.0000
 BRION: g(F)=  0.410E+01 g(S)=  0.000E+00 retain N=  1 mean eig= 0.07
 eig:   0.068
 bond charge predicted
       N       E                     dE             d eps       ncg     rms          rms(c)
DAV:   1    -0.798953558110E+01    0.80411E+01   -0.75778E+02    64   0.195E+02    0.763E+00
DAV:   2    -0.996390457512E+01   -0.19744E+01   -0.32195E+01    80   0.412E+01    0.584E+00
DAV:   3    -0.935817305200E+01    0.60573E+00   -0.17988E+00    96   0.111E+01    0.236E+00
DAV:   4    -0.923454347626E+01    0.12363E+00   -0.27008E-01    96   0.476E+00    0.115E+00
DAV:   5    -0.920985564210E+01    0.24688E-01   -0.79583E-02    96   0.202E+00    0.442E-01
DAV:   6    -0.920649737685E+01    0.33583E-02   -0.14554E-02    64   0.935E-01    0.193E-01
DAV:   7    -0.920840433257E+01   -0.19070E-02   -0.82516E-03    80   0.589E-01    0.128E-01
DAV:   8    -0.921077547982E+01   -0.23711E-02   -0.24394E-03    80   0.435E-01    0.636E-02
DAV:   9    -0.921612648307E+01   -0.53510E-02   -0.24121E-03    80   0.280E-01    0.475E-02
DAV:  10    -0.921771916098E+01   -0.15927E-02   -0.38608E-04    96   0.148E-01    0.259E-02
DAV:  11    -0.922038891744E+01   -0.26698E-02   -0.52960E-04    80   0.102E-01    0.126E-02
DAV:  12    -0.922094090372E+01   -0.55199E-03   -0.46165E-05   112   0.411E-02    0.793E-03
DAV:  13    -0.922149077866E+01   -0.54987E-03   -0.31795E-05    80   0.258E-02    0.411E-03
DAV:  14    -0.922164057185E+01   -0.14979E-03   -0.53886E-06    80   0.148E-02    0.279E-03
DAV:  15    -0.922177377267E+01   -0.13320E-03   -0.71553E-06    48   0.136E-02    0.166E-03
DAV:  16    -0.922182550999E+01   -0.51737E-04   -0.25680E-06    64   0.879E-03    0.115E-03
DAV:  17    -0.922187621608E+01   -0.50706E-04   -0.15948E-06    48   0.622E-03    0.861E-04
DAV:  18    -0.922189758541E+01   -0.21369E-04   -0.83917E-07    64   0.450E-03    0.546E-04
DAV:  19    -0.922190547846E+01   -0.78930E-05   -0.18318E-07    64   0.247E-03
   9 F= -.92219055E+01 E0= -.92219055E+01  d E =0.680876E+01  mag=    -0.0000
 BRION: g(F)=  0.395E+03 g(S)=  0.000E+00 retain N=  2 mean eig= 0.09
 eig:   0.086  0.086
 bond charge predicted
       N       E                     dE             d eps       ncg     rms          rms(c)
DAV:   1    -0.167036565086E+02   -0.74818E+01   -0.62708E+02    64   0.184E+02    0.866E+00
DAV:   2    -0.168691448212E+02   -0.16549E+00   -0.18129E+01    96   0.289E+01    0.452E+00
DAV:   3    -0.165150614012E+02    0.35408E+00   -0.74346E-01    96   0.818E+00    0.270E+00
DAV:   4    -0.164378479690E+02    0.77213E-01   -0.38712E-01    80   0.581E+00    0.110E+00
DAV:   5    -0.164151404271E+02    0.22708E-01   -0.78911E-02    80   0.305E+00    0.446E-01
DAV:   6    -0.164164495483E+02   -0.13091E-02   -0.13950E-02    64   0.806E-01    0.244E-01
DAV:   7    -0.164185745680E+02   -0.21250E-02   -0.60669E-03    80   0.558E-01    0.121E-01
DAV:   8    -0.164200005862E+02   -0.14260E-02   -0.62764E-04    96   0.253E-01    0.554E-02
DAV:   9    -0.164238533876E+02   -0.38528E-02   -0.13886E-03    80   0.217E-01    0.474E-02
DAV:  10    -0.164258466919E+02   -0.19933E-02   -0.40576E-04    96   0.122E-01    0.234E-02
DAV:  11    -0.164274633904E+02   -0.16167E-02   -0.33868E-04    80   0.857E-02    0.135E-02
DAV:  12    -0.164280467620E+02   -0.58337E-03   -0.41617E-05    96   0.392E-02    0.884E-03
DAV:  13    -0.164283872246E+02   -0.34046E-03   -0.22224E-05    96   0.268E-02    0.399E-03
DAV:  14    -0.164285387531E+02   -0.15153E-03   -0.57468E-06    64   0.130E-02    0.192E-03
DAV:  15    -0.164285922695E+02   -0.53516E-04   -0.23478E-06    64   0.915E-03    0.123E-03
DAV:  16    -0.164286364572E+02   -0.44188E-04   -0.15002E-06    48   0.722E-03    0.114E-03
DAV:  17    -0.164286738677E+02   -0.37411E-04   -0.14111E-06    80   0.624E-03    0.537E-04
DAV:  18    -0.164286855402E+02   -0.11672E-04   -0.31895E-07    80   0.295E-03    0.419E-04
DAV:  19    -0.164286925404E+02   -0.70001E-05   -0.13702E-07    64   0.181E-03
  10 F= -.16428693E+02 E0= -.16428693E+02  d E =-.720679E+01  mag=     0.0000
 BRION: g(F)=  0.292E+01 g(S)=  0.000E+00 retain N=  1 mean eig= 0.08
 eig:   0.077
 bond charge predicted
       N       E                     dE             d eps       ncg     rms          rms(c)
DAV:   1    -0.140656844603E+02    0.23630E+01   -0.24511E+02    64   0.119E+02    0.413E+00
DAV:   2    -0.146491248616E+02   -0.58344E+00   -0.92020E+00    80   0.212E+01    0.312E+00
DAV:   3    -0.144905497546E+02    0.15858E+00   -0.40463E-01    96   0.526E+00    0.156E+00
DAV:   4    -0.144366682508E+02    0.53882E-01   -0.11693E-01    96   0.298E+00    0.737E-01
DAV:   5    -0.144293213335E+02    0.73469E-02   -0.31105E-02    80   0.126E+00    0.278E-01
DAV:   6    -0.144287755508E+02    0.54578E-03   -0.57458E-03    80   0.587E-01    0.115E-01
DAV:   7    -0.144301401873E+02   -0.13646E-02   -0.26531E-03    80   0.318E-01    0.744E-02
DAV:   8    -0.144314130777E+02   -0.12729E-02   -0.64545E-04    96   0.216E-01    0.352E-02
DAV:   9    -0.144338197157E+02   -0.24066E-02   -0.66431E-04   112   0.154E-01    0.330E-02
DAV:  10    -0.144348443946E+02   -0.10247E-02   -0.20333E-04    96   0.927E-02    0.167E-02
DAV:  11    -0.144362376278E+02   -0.13932E-02   -0.20381E-04    96   0.681E-02    0.828E-03
DAV:  12    -0.144366222661E+02   -0.38464E-03   -0.30495E-05    96   0.306E-02    0.424E-03
DAV:  13    -0.144369038650E+02   -0.28160E-03   -0.84111E-06    64   0.139E-02    0.205E-03
DAV:  14    -0.144370394566E+02   -0.13559E-03   -0.71534E-06    80   0.105E-02    0.127E-03
DAV:  15    -0.144370942575E+02   -0.54801E-04   -0.25640E-06    64   0.707E-03    0.798E-04
DAV:  16    -0.144371090226E+02   -0.14765E-04   -0.69671E-07    80   0.419E-03    0.629E-04
DAV:  17    -0.144371268608E+02   -0.17838E-04   -0.41636E-07    64   0.317E-03    0.379E-04
DAV:  18    -0.144371316157E+02   -0.47550E-05   -0.11194E-07    80   0.170E-03
  11 F= -.14437132E+02 E0= -.14437132E+02  d E =0.199156E+01  mag=    -0.0000
 BRION: g(F)=  0.716E+02 g(S)=  0.000E+00 retain N=  2 mean eig= 0.11
 eig:   0.110  0.110
 bond charge predicted
       N       E                     dE             d eps       ncg     rms          rms(c)
DAV:   1    -0.168435959098E+02   -0.24065E+01   -0.17048E+02    64   0.950E+01    0.431E+00
DAV:   2    -0.168446173727E+02   -0.10215E-02   -0.41355E+00    96   0.143E+01    0.217E+00
DAV:   3    -0.167481246588E+02    0.96493E-01   -0.15524E-01    80   0.362E+00    0.112E+00
DAV:   4    -0.167307387908E+02    0.17386E-01   -0.10100E-01    96   0.246E+00    0.280E-01
DAV:   5    -0.167298595143E+02    0.87928E-03   -0.12623E-02    96   0.990E-01    0.222E-01
DAV:   6    -0.167303382376E+02   -0.47872E-03   -0.22586E-03    80   0.347E-01    0.102E-01
DAV:   7    -0.167313483314E+02   -0.10101E-02   -0.11480E-03    80   0.248E-01    0.500E-02
DAV:   8    -0.167329237773E+02   -0.15754E-02   -0.49858E-04    80   0.149E-01    0.299E-02
DAV:   9    -0.167348567822E+02   -0.19330E-02   -0.45680E-04    80   0.121E-01    0.187E-02
DAV:  10    -0.167356455754E+02   -0.78879E-03   -0.12103E-04    80   0.595E-02    0.123E-02
DAV:  11    -0.167362873311E+02   -0.64176E-03   -0.79150E-05    80   0.426E-02    0.529E-03
DAV:  12    -0.167366026272E+02   -0.31530E-03   -0.15313E-05    96   0.187E-02    0.292E-03
DAV:  13    -0.167367392858E+02   -0.13666E-03   -0.52131E-06    80   0.128E-02    0.263E-03
DAV:  14    -0.167367909640E+02   -0.51678E-04   -0.16771E-06    64   0.795E-03    0.892E-04
DAV:  15    -0.167368206048E+02   -0.29641E-04   -0.10746E-06    64   0.569E-03    0.878E-04
DAV:  16    -0.167368314521E+02   -0.10847E-04   -0.31027E-07    64   0.402E-03    0.591E-04
DAV:  17    -0.167368471672E+02   -0.15715E-04   -0.32761E-07    64   0.260E-03    0.335E-04
DAV:  18    -0.167368500125E+02   -0.28453E-05   -0.76922E-08    80   0.138E-03
  12 F= -.16736850E+02 E0= -.16736850E+02  d E =-.229972E+01  mag=    -0.0000
 BRION: g(F)=  0.179E+01 g(S)=  0.000E+00 retain N=  1 mean eig= 0.10
 eig:   0.101
 bond charge predicted
       N       E                     dE             d eps       ncg     rms          rms(c)
DAV:   1    -0.123421037046E+02    0.43947E+01   -0.39615E+02    64   0.148E+02    0.566E+00
DAV:   2    -0.132396151038E+02   -0.89751E+00   -0.15579E+01    96   0.286E+01    0.406E+00
DAV:   3    -0.129550448020E+02    0.28457E+00   -0.85279E-01    96   0.768E+00    0.176E+00
DAV:   4    -0.128815895869E+02    0.73455E-01   -0.15398E-01    96   0.376E+00    0.829E-01
DAV:   5    -0.128694097311E+02    0.12180E-01   -0.42574E-02    96   0.147E+00    0.344E-01
DAV:   6    -0.128681424578E+02    0.12673E-02   -0.86792E-03    64   0.757E-01    0.133E-01
DAV:   7    -0.128699404559E+02   -0.17980E-02   -0.38723E-03    80   0.409E-01    0.107E-01
DAV:   8    -0.128717866455E+02   -0.18462E-02   -0.13030E-03    80   0.322E-01    0.430E-02
DAV:   9    -0.128754748672E+02   -0.36882E-02   -0.13835E-03    80   0.232E-01    0.448E-02
DAV:  10    -0.128765943560E+02   -0.11195E-02   -0.22977E-04    80   0.115E-01    0.211E-02
DAV:  11    -0.128784176350E+02   -0.18233E-02   -0.34150E-04    80   0.880E-02    0.129E-02
DAV:  12    -0.128787831933E+02   -0.36556E-03   -0.29669E-05    96   0.345E-02    0.634E-03
DAV:  13    -0.128792217882E+02   -0.43859E-03   -0.25183E-05    80   0.264E-02    0.352E-03
DAV:  14    -0.128793439184E+02   -0.12213E-03   -0.48593E-06    64   0.134E-02    0.195E-03
DAV:  15    -0.128794137915E+02   -0.69873E-04   -0.33642E-06    48   0.120E-02    0.129E-03
DAV:  16    -0.128794500460E+02   -0.36254E-04   -0.17716E-06    64   0.824E-03    0.865E-04
DAV:  17    -0.128794869328E+02   -0.36887E-04   -0.12596E-06    48   0.525E-03    0.617E-04
DAV:  18    -0.128794979103E+02   -0.10977E-04   -0.32003E-07    64   0.298E-03    0.424E-04
DAV:  19    -0.128795030167E+02   -0.51064E-05   -0.89163E-08    64   0.174E-03
  13 F= -.12879503E+02 E0= -.12879503E+02  d E =0.385735E+01  mag=    -0.0000
 BRION: g(F)=  0.153E+03 g(S)=  0.000E+00 retain N=  2 mean eig= 0.11
 eig:   0.106  0.106
 bond charge predicted
       N       E                     dE             d eps       ncg     rms          rms(c)
DAV:   1    -0.171178067112E+02   -0.42383E+01   -0.31072E+02    64   0.130E+02    0.590E+00
DAV:   2    -0.171355602363E+02   -0.17754E-01   -0.78863E+00    96   0.197E+01    0.304E+00
DAV:   3    -0.169518205909E+02    0.18374E+00   -0.31048E-01    96   0.509E+00    0.161E+00
DAV:   4    -0.169148043015E+02    0.37016E-01   -0.18258E-01    80   0.346E+00    0.400E-01
DAV:   5    -0.169121230616E+02    0.26812E-02   -0.20260E-02    80   0.141E+00    0.264E-01
DAV:   6    -0.169131508023E+02   -0.10277E-02   -0.51533E-03    80   0.451E-01    0.125E-01
DAV:   7    -0.169146037667E+02   -0.14530E-02   -0.15691E-03    80   0.285E-01    0.630E-02
DAV:   8    -0.169166412318E+02   -0.20375E-02   -0.81192E-04    80   0.232E-01    0.420E-02
DAV:   9    -0.169188519756E+02   -0.22107E-02   -0.49177E-04    80   0.123E-01    0.272E-02
DAV:  10    -0.169203398589E+02   -0.14879E-02   -0.37267E-04    96   0.108E-01    0.162E-02
DAV:  11    -0.169210781831E+02   -0.73832E-03   -0.10185E-04   112   0.563E-02    0.766E-03
DAV:  12    -0.169214459840E+02   -0.36780E-03   -0.15528E-05    80   0.211E-02    0.315E-03
DAV:  13    -0.169215944332E+02   -0.14845E-03   -0.76478E-06    80   0.128E-02    0.247E-03
DAV:  14    -0.169216891992E+02   -0.94766E-04   -0.43094E-06    64   0.986E-03    0.116E-03
DAV:  15    -0.169217110114E+02   -0.21812E-04   -0.12130E-06    80   0.597E-03    0.885E-04
DAV:  16    -0.169217437743E+02   -0.32763E-04   -0.77438E-07    80   0.413E-03    0.482E-04
DAV:  17    -0.169217643683E+02   -0.20594E-04   -0.60943E-07    80   0.315E-03    0.378E-04
DAV:  18    -0.169217705390E+02   -0.61707E-05   -0.10459E-07    80   0.174E-03
  14 F= -.16921771E+02 E0= -.16921771E+02  d E =-.404227E+01  mag=    -0.0000
 BRION: g(F)=  0.935E+00 g(S)=  0.000E+00 retain N=  1 mean eig= 0.09
 eig:   0.087
 bond charge predicted
       N       E                     dE             d eps       ncg     rms          rms(c)
DAV:   1    -0.167518196272E+02    0.16994E+00   -0.31388E+01    64   0.430E+01    0.145E+00
DAV:   2    -0.168151476055E+02   -0.63328E-01   -0.10414E+00    96   0.703E+00    0.876E-01
DAV:   3    -0.168008955039E+02    0.14252E-01   -0.30182E-02    96   0.149E+00    0.472E-01
DAV:   4    -0.167965955938E+02    0.42999E-02   -0.15131E-02    80   0.109E+00    0.206E-01
DAV:   5    -0.167963943888E+02    0.20120E-03   -0.31312E-03    96   0.444E-01    0.808E-02
DAV:   6    -0.167965139394E+02   -0.11955E-03   -0.99404E-04    80   0.243E-01    0.454E-02
DAV:   7    -0.167966946072E+02   -0.18067E-03   -0.14344E-04    96   0.109E-01    0.209E-02
DAV:   8    -0.167969874973E+02   -0.29289E-03   -0.45046E-05    80   0.508E-02    0.103E-02
DAV:   9    -0.167974884580E+02   -0.50096E-03   -0.46184E-05    80   0.327E-02    0.551E-03
DAV:  10    -0.167978932162E+02   -0.40476E-03   -0.45956E-05    96   0.328E-02    0.700E-03
DAV:  11    -0.167981066158E+02   -0.21340E-03   -0.18537E-05    80   0.192E-02    0.241E-03
DAV:  12    -0.167981965156E+02   -0.89900E-04   -0.39107E-06    64   0.923E-03    0.121E-03
DAV:  13    -0.167982486513E+02   -0.52136E-04   -0.25250E-06    80   0.700E-03    0.984E-04
DAV:  14    -0.167982625354E+02   -0.13884E-04   -0.80038E-07    80   0.442E-03    0.698E-04
DAV:  15    -0.167982693335E+02   -0.67981E-05   -0.35213E-07    48   0.304E-03
  15 F= -.16798269E+02 E0= -.16798269E+02  d E =0.123501E+00  mag=    -0.0000
 BRION: g(F)=  0.416E+01 g(S)=  0.000E+00 retain N=  2 mean eig= 0.13
 eig:   0.132  0.132
 bond charge predicted
       N       E                     dE             d eps       ncg     rms          rms(c)
DAV:   1    -0.170022360672E+02   -0.20397E+00   -0.15632E+01    64   0.298E+01    0.105E+00
DAV:   2    -0.170233399332E+02   -0.21104E-01   -0.44667E-01    96   0.477E+00    0.652E-01
DAV:   3    -0.170147976567E+02    0.85423E-02   -0.16276E-02    96   0.110E+00    0.317E-01
DAV:   4    -0.170122911207E+02    0.25065E-02   -0.72133E-03   112   0.827E-01    0.163E-01
DAV:   5    -0.170121560879E+02    0.13503E-03   -0.11781E-03    96   0.345E-01    0.586E-02
DAV:   6    -0.170124606664E+02   -0.30458E-03   -0.63412E-04    80   0.182E-01    0.337E-02
DAV:   7    -0.170127382008E+02   -0.27753E-03   -0.89381E-05    96   0.857E-02    0.148E-02
DAV:   8    -0.170130327779E+02   -0.29458E-03   -0.29439E-05    80   0.328E-02    0.995E-03
DAV:   9    -0.170134594068E+02   -0.42663E-03   -0.49806E-05    80   0.353E-02    0.515E-03
DAV:  10    -0.170137698985E+02   -0.31049E-03   -0.39343E-05    80   0.267E-02    0.594E-03
DAV:  11    -0.170139506901E+02   -0.18079E-03   -0.18034E-05    80   0.186E-02    0.188E-03
DAV:  12    -0.170140008038E+02   -0.50114E-04   -0.11522E-06    80   0.630E-03    0.933E-04
DAV:  13    -0.170140286538E+02   -0.27850E-04   -0.11418E-06    64   0.494E-03    0.671E-04
DAV:  14    -0.170140363117E+02   -0.76579E-05   -0.34071E-07    64   0.356E-03
  16 F= -.17014036E+02 E0= -.17014036E+02  d E =-.215767E+00  mag=     0.0000
 BRION: g(F)=  0.400E+00 g(S)=  0.000E+00 retain N=  1 mean eig= 0.15
 eig:   0.149
 bond charge predicted
       N       E                     dE             d eps       ncg     rms          rms(c)
DAV:   1    -0.161543312612E+02    0.85970E+00   -0.85029E+01    64   0.701E+01    0.246E+00
DAV:   2    -0.163302122537E+02   -0.17588E+00   -0.29422E+00    96   0.122E+01    0.168E+00
DAV:   3    -0.162816914610E+02    0.48521E-01   -0.12409E-01    80   0.295E+00    0.825E-01
DAV:   4    -0.162639471479E+02    0.17744E-01   -0.36282E-02    96   0.189E+00    0.382E-01
DAV:   5    -0.162618842888E+02    0.20629E-02   -0.98735E-03    96   0.717E-01    0.158E-01
DAV:   6    -0.162619979605E+02   -0.11367E-03   -0.27787E-03    64   0.430E-01    0.687E-02
DAV:   7    -0.162628845158E+02   -0.88656E-03   -0.64370E-04    80   0.194E-01    0.587E-02
DAV:   8    -0.162638810293E+02   -0.99651E-03   -0.38911E-04    80   0.172E-01    0.232E-02
DAV:   9    -0.162648589926E+02   -0.97796E-03   -0.22454E-04    80   0.921E-02    0.160E-02
DAV:  10    -0.162657820251E+02   -0.92303E-03   -0.10490E-04    80   0.497E-02    0.117E-02
DAV:  11    -0.162665169538E+02   -0.73493E-03   -0.10044E-04    80   0.388E-02    0.754E-03
DAV:  12    -0.162667570819E+02   -0.24013E-03   -0.21061E-05    80   0.256E-02    0.290E-03
DAV:  13    -0.162668729375E+02   -0.11586E-03   -0.44424E-06    80   0.114E-02    0.213E-03
DAV:  14    -0.162669269238E+02   -0.53986E-04   -0.31931E-06    64   0.963E-03    0.117E-03
DAV:  15    -0.162669426883E+02   -0.15764E-04   -0.85273E-07    80   0.641E-03    0.727E-04
DAV:  16    -0.162669665972E+02   -0.23909E-04   -0.86584E-07    48   0.433E-03    0.579E-04
DAV:  17    -0.162669755801E+02   -0.89829E-05   -0.24179E-07    64   0.245E-03
  17 F= -.16266976E+02 E0= -.16266976E+02  d E =0.747061E+00  mag=     0.0000
 BRION: g(F)=  0.158E+02 g(S)=  0.000E+00 retain N=  2 mean eig= 0.15
 eig:   0.147  0.147
 bond charge predicted
       N       E                     dE             d eps       ncg     rms          rms(c)
DAV:   1    -0.170354852493E+02   -0.76852E+00   -0.60641E+01    64   0.587E+01    0.222E+00
DAV:   2    -0.170931611460E+02   -0.57676E-01   -0.16510E+00    96   0.918E+00    0.128E+00
DAV:   3    -0.170585330078E+02    0.34628E-01   -0.58570E-02    96   0.206E+00    0.607E-01
DAV:   4    -0.170506171368E+02    0.79159E-02   -0.30196E-02    80   0.146E+00    0.194E-01
DAV:   5    -0.170508488182E+02   -0.23168E-03   -0.27461E-03    80   0.471E-01    0.102E-01
DAV:   6    -0.170513651573E+02   -0.51634E-03   -0.10632E-03    64   0.223E-01    0.492E-02
DAV:   7    -0.170521743374E+02   -0.80918E-03   -0.36072E-04    96   0.161E-01    0.280E-02
DAV:   8    -0.170528876623E+02   -0.71332E-03   -0.12110E-04    80   0.773E-02    0.185E-02
DAV:   9    -0.170538841015E+02   -0.99644E-03   -0.13506E-04    80   0.635E-02    0.850E-03
DAV:  10    -0.170545527267E+02   -0.66863E-03   -0.11120E-04    80   0.498E-02    0.862E-03
DAV:  11    -0.170549372576E+02   -0.38453E-03   -0.49242E-05    80   0.297E-02    0.323E-03
DAV:  12    -0.170550176067E+02   -0.80349E-04   -0.22067E-06    80   0.108E-02    0.181E-03
DAV:  13    -0.170550838754E+02   -0.66269E-04   -0.34662E-06    80   0.103E-02    0.129E-03
DAV:  14    -0.170550979112E+02   -0.14036E-04   -0.10505E-06    80   0.689E-03    0.108E-03
DAV:  15    -0.170551205211E+02   -0.22610E-04   -0.87232E-07    64   0.456E-03    0.448E-04
DAV:  16    -0.170551288722E+02   -0.83511E-05   -0.22409E-07    80   0.254E-03
  18 F= -.17055129E+02 E0= -.17055129E+02  d E =-.788153E+00  mag=    -0.0000
 BRION: g(F)=  0.728E-01 g(S)=  0.000E+00 retain N=  1 mean eig= 0.12
 eig:   0.124
 bond charge predicted
       N       E                     dE             d eps       ncg     rms          rms(c)
DAV:   1    -0.170604618532E+02   -0.53413E-02   -0.53145E-01    64   0.560E+00    0.189E-01
DAV:   2    -0.170612949698E+02   -0.83312E-03   -0.16118E-02    96   0.884E-01    0.915E-02
DAV:   3    -0.170611423598E+02    0.15261E-03   -0.27111E-04    80   0.152E-01    0.525E-02
DAV:   4    -0.170611763283E+02   -0.33969E-04   -0.41642E-04    80   0.141E-01    0.149E-02
DAV:   5    -0.170611791043E+02   -0.27759E-05   -0.36625E-05    80   0.487E-02
  19 F= -.17061179E+02 E0= -.17061179E+02  d E =-.605023E-02  mag=     0.0000
 BRION: g(F)=  0.206E-01 g(S)=  0.000E+00 retain N=  2 mean eig= 1.76
 eig:   0.147  3.381
 bond charge predicted
       N       E                     dE             d eps       ncg     rms          rms(c)
DAV:   1    -0.170619186979E+02   -0.74237E-03   -0.42080E-02    64   0.158E+00    0.494E-02
DAV:   2    -0.170620032833E+02   -0.84585E-04   -0.14928E-03    96   0.276E-01    0.368E-02
DAV:   3    -0.170619793922E+02    0.23891E-04   -0.46506E-05    96   0.605E-02    0.197E-02
DAV:   4    -0.170619681791E+02    0.11213E-04   -0.17068E-05    80   0.465E-02    0.108E-02
DAV:   5    -0.170619690469E+02   -0.86779E-06   -0.78077E-06    80   0.225E-02
  20 F= -.17061969E+02 E0= -.17061969E+02  d E =-.789943E-03  mag=    -0.0000
 BRION: g(F)=  0.819E-02 g(S)=  0.000E+00 retain N=  2 mean eig= 0.15
 eig:   0.261  0.048
 bond charge predicted
       N       E                     dE             d eps       ncg     rms          rms(c)
DAV:   1    -0.170626174689E+02   -0.64929E-03   -0.12214E-01    64   0.270E+00    0.847E-02
DAV:   2    -0.170627999812E+02   -0.18251E-03   -0.36422E-03    96   0.426E-01    0.476E-02
DAV:   3    -0.170627677873E+02    0.32194E-04   -0.75164E-05    80   0.792E-02    0.270E-02
DAV:   4    -0.170627739898E+02   -0.62025E-05   -0.69235E-05    96   0.647E-02
  21 F= -.17062774E+02 E0= -.17062774E+02  d E =-.804943E-03  mag=    -0.0000
 BRION: g(F)=  0.301E-04 g(S)=  0.000E+00 retain N=  2 mean eig= 0.18
 eig:   0.178  0.178
 bond charge predicted
       N       E                     dE             d eps       ncg     rms          rms(c)
DAV:   1    -0.170627845912E+02   -0.16804E-04   -0.62311E-04    80   0.196E-01    0.581E-03
DAV:   2    -0.170627921064E+02   -0.75152E-05   -0.17301E-05    80   0.308E-02
  22 F= -.17062792E+02 E0= -.17062792E+02  d E =-.181166E-04  mag=    -0.0000
 BRION: g(F)=  0.903E-06 g(S)=  0.000E+00 retain N=  1 mean eig= 0.27
 eig:   0.272
 reached required accuracy - stopping structural energy minimisation
--------------------------------------------------------
>>>  Job finished at Wed Jun 29 12:20:04 EDT 2022
