 vasp.5.4.4.18Apr17-6-g9f103f2a35 (build Dec 31 2018 11:41:54) complex          
  
 executed on             LinuxIFC date 2022.06.29  12:07:49
 running on   16 total cores
 distrk:  each k-point on   16 cores,    1 groups
 distr:  one band on NCORES_PER_BAND=   4 cores,    4 groups


--------------------------------------------------------------------------------------------------------


 INCAR:
 POTCAR:   PAW_PBE O 08Apr2002                    
 POTCAR:    PAW_PBE S 17Jan2003                   
 POTCAR:   PAW_PBE O 08Apr2002                    
   VRHFIN =O: s2p4                                                              
   LEXCH  = PE                                                                  
   EATOM  =   432.3788 eV,   31.7789 Ry                                         
                                                                                
   TITEL  = PAW_PBE O 08Apr2002                                                 
   LULTRA =        F    use ultrasoft PP ?                                      
   IUNSCR =        0    unscreen: 0-lin 1-nonlin 2-no                           
   RPACOR =     .000    partial core radius                                     
   POMASS =   16.000; ZVAL   =    6.000    mass and valenz                      
   RCORE  =    1.520    outmost cutoff radius                                   
   RWIGS  =    1.550; RWIGS  =     .820    wigner-seitz radius (au A)           
   ENMAX  =  400.000; ENMIN  =  300.000 eV                                      
   ICORE  =        2    local potential                                         
   LCOR   =        T    correct aug charges                                     
   LPAW   =        T    paw PP                                                  
   EAUG   =  605.392                                                            
   DEXC   =     .000                                                            
   RMAX   =    2.264    core radius for proj-oper                               
   RAUG   =    1.300    factor for augmentation sphere                          
   RDEP   =    1.550    radius for radial grids                                 
   QCUT   =   -5.520; QGAM   =   11.041    optimization parameters              
                                                                                
   Description                                                                  
     l     E      TYP  RCUT    TYP  RCUT                                        
     0   .000     23  1.200                                                     
     0  -.700     23  1.200                                                     
     1   .000     23  1.520                                                     
     1   .600     23  1.520                                                     
     2   .000      7  1.500                                                     
  local pseudopotential read in
  atomic valenz-charges read in
  non local Contribution for L=           0  read in
    real space projection operators read in
  non local Contribution for L=           0  read in
    real space projection operators read in
  non local Contribution for L=           1  read in
    real space projection operators read in
  non local Contribution for L=           1  read in
    real space projection operators read in
    PAW grid and wavefunctions read in
 
   number of l-projection  operators is LMAX  =           4
   number of lm-projection operators is LMMAX =           8
 
 POTCAR:    PAW_PBE S 17Jan2003                   
   VRHFIN =S : s2p4                                                             
   LEXCH  = PE                                                                  
   EATOM  =   276.8230 eV,   20.3459 Ry                                         
                                                                                
   TITEL  = PAW_PBE S 17Jan2003                                                 
   LULTRA =        F    use ultrasoft PP ?                                      
   IUNSCR =        1    unscreen: 0-lin 1-nonlin 2-no                           
   RPACOR =    1.500    partial core radius                                     
   POMASS =   32.066; ZVAL   =    6.000    mass and valenz                      
   RCORE  =    1.900    outmost cutoff radius                                   
   RWIGS  =    2.200; RWIGS  =    1.164    wigner-seitz radius (au A)           
   ENMAX  =  280.000; ENMIN  =  194.016 eV                                      
   ICORE  =        2    local potential                                         
   LCOR   =        T    correct aug charges                                     
   LPAW   =        T    paw PP                                                  
   EAUG   =  335.092                                                            
   DEXC   =     .000                                                            
   RMAX   =    2.867    core radius for proj-oper                               
   RAUG   =    1.300    factor for augmentation sphere                          
   RDEP   =    1.954    radius for radial grids                                 
   QCUT   =   -4.360; QGAM   =    8.721    optimization parameters              
                                                                                
   Description                                                                  
     l     E      TYP  RCUT    TYP  RCUT                                        
     0   .000     23  1.900                                                     
     0   .000     23  1.900                                                     
     1   .000     23  1.900                                                     
     1   .000     23  1.900                                                     
     2   .000     23  1.900                                                     
  local pseudopotential read in
  partial core-charges read in
  atomic valenz-charges read in
  non local Contribution for L=           0  read in
    real space projection operators read in
  non local Contribution for L=           0  read in
    real space projection operators read in
  non local Contribution for L=           1  read in
    real space projection operators read in
  non local Contribution for L=           1  read in
    real space projection operators read in
    PAW grid and wavefunctions read in
 
   number of l-projection  operators is LMAX  =           4
   number of lm-projection operators is LMMAX =           8
 

 ----------------------------------------------------------------------------- 
|                                                                             |
|  ADVICE TO THIS USER RUNNING 'VASP/VAMP'   (HEAR YOUR MASTER'S VOICE ...):  |
|                                                                             |
|      You have a (more or less) 'small supercell' and for smaller cells      |
|      it is recommended  to use the reciprocal-space projection scheme!      |
|      The real space optimization is not  efficient for small cells and it   |
|      is also less accurate ...                                              |
|      Therefore set LREAL=.FALSE. in the  INCAR file                         |
|                                                                             |
 ----------------------------------------------------------------------------- 

 Optimization of the real space projectors (new method)

 maximal supplied QI-value         = 24.76
 optimisation between [QCUT,QGAM] = [ 10.15, 20.30] = [ 28.85,115.39] Ry 
 Optimized for a Real-space Cutoff    1.51 Angstroem

   l    n(q)    QCUT    max X(q) W(low)/X(q) W(high)/X(q)  e(spline) 
   0      9    10.150     4.192    0.32E-04    0.13E-04    0.13E-06
   0      9    10.150     8.473    0.18E-03    0.20E-03    0.43E-06
   1      9    10.150     2.474    0.32E-04    0.33E-04    0.64E-07
   1      9    10.150     3.912    0.13E-03    0.16E-03    0.33E-06
 Optimization of the real space projectors (new method)

 maximal supplied QI-value         = 19.84
 optimisation between [QCUT,QGAM] = [ 10.12, 20.44] = [ 28.68,116.96] Ry 
 Optimized for a Real-space Cutoff    1.42 Angstroem

   l    n(q)    QCUT    max X(q) W(low)/X(q) W(high)/X(q)  e(spline) 
   0      9    10.119     5.487    0.15E-04    0.47E-05    0.66E-08
   0      9    10.119    85.627    0.51E-04    0.92E-04    0.63E-07
   1      8    10.119     3.530    0.37E-05    0.76E-05    0.28E-07
   1      8    10.119    42.714    0.16E-03    0.16E-03    0.23E-06
 PAW_PBE O 08Apr2002                    :
 energy of atom  1       EATOM= -432.3788
 kinetic energy error for atom=    0.1156 (will be added to EATOM!!)
  PAW_PBE S 17Jan2003                   :
 energy of atom  2       EATOM= -276.8230
 kinetic energy error for atom=    0.0046 (will be added to EATOM!!)
 
 
 POSCAR: O2                                      
  positions in direct lattice
  No initial velocities read in
 exchange correlation table for  LEXCH =        8
   RHO(1)=    0.500       N(1)  =     2000
   RHO(2)=  100.500       N(2)  =     4000

 VTST: version 3.2, (02/03/18)

 CHAIN: initializing optimizer
 
 OPT: Using VASP QUASI-newton optimizer
 CHAIN: Read ICHAIN            0
 
 POSCAR: O2                                      
  positions in direct lattice
  No initial velocities read in
 


--------------------------------------------------------------------------------------------------------


 ion  position               nearest neighbor table
   1  0.835  0.514  0.681-   3 1.34
   2  0.795  0.633  0.621-   3 1.53
   3  0.795  0.523  0.601-   1 1.34   2 1.53
 
  LATTYP: Found a hexagonal cell.
 ALAT       =    13.6750001907
 C/A-ratio  =     1.0798537472
  
  Lattice vectors:
  
 A1 = (  13.6750001907,   0.0000000000,   0.0000000000)
 A2 = (  -6.8375000954,  11.8428975619,   0.0000000000)
 A3 = (   0.0000000000,   0.0000000000,  14.7670001984)


Analysis of symmetry for initial positions (statically):
=====================================================================
 Subroutine PRICEL returns:
 Original cell was already a primitive cell.
 

 Routine SETGRP: Setting up the symmetry group for a 
 hexagonal supercell.


 Subroutine GETGRP returns: Found  1 space group operations
 (whereof  1 operations were pure point group operations)
 out of a pool of 24 trial point group operations.


The static configuration has the point symmetry C_1 .


Analysis of symmetry for dynamics (positions and initial velocities):
=====================================================================
 Subroutine PRICEL returns:
 Original cell was already a primitive cell.
 

 Routine SETGRP: Setting up the symmetry group for a 
 hexagonal supercell.


 Subroutine GETGRP returns: Found  1 space group operations
 (whereof  1 operations were pure point group operations)
 out of a pool of 24 trial point group operations.


The dynamic configuration has the point symmetry C_1 .


Analysis of structural, dynamic, and magnetic symmetry:
=====================================================================
 Subroutine PRICEL returns:
 Original cell was already a primitive cell.
 

 Routine SETGRP: Setting up the symmetry group for a 
 hexagonal supercell.


 Subroutine GETGRP returns: Found  1 space group operations
 (whereof  1 operations were pure point group operations)
 out of a pool of 24 trial point group operations.


The magnetic configuration has the point symmetry C_1 .


 Subroutine INISYM returns: Found  1 space group operations
 (whereof  1 operations are pure point group operations),
 and found     1 'primitive' translations

 
 
 KPOINTS: Gamma points only                       
  k-points in reciprocal lattice
Space group operators:
 irot       det(A)        alpha          n_x          n_y          n_z        tau_x        tau_y        tau_z
    1     1.000000     0.000000     1.000000     0.000000     0.000000     0.000000     0.000000     0.000000


--------------------------------------------------------------------------------------------------------




 Dimension of arrays:
   k-points           NKPTS =      1   k-points in BZ     NKDIM =      1   number of bands    NBANDS=     16
   number of dos      NEDOS =    301   number of ions     NIONS =      3
   non local maximal  LDIM  =      4   non local SUM 2l+1 LMDIM =      8
   total plane-waves  NPLWV = 777600
   max r-space proj   IRMAX =   4725   max aug-charges    IRDMAX=  82140
   dimension x,y,z NGX =    90 NGY =   90 NGZ =   96
   dimension x,y,z NGXF=   180 NGYF=  180 NGZF=  192
   support grid    NGXF=   360 NGYF=  360 NGZF=  384
   ions per type =               2   1
   NGX,Y,Z   is equivalent  to a cutoff of  10.94, 10.94, 10.81 a.u.
   NGXF,Y,Z  is equivalent  to a cutoff of  21.88, 21.88, 21.62 a.u.

 SYSTEM =  SiO2                                    
 POSCAR =  O2                                      

 Startparameter for this run:
   NWRITE =      2    write-flag & timer
   PREC   = acc       normal or accurate (medium, high low for compatibility)
   ISTART =      0    job   : 0-new  1-cont  2-samecut
   ICHARG =      2    charge: 1-file 2-atom 10-const
   ISPIN  =      2    spin polarized calculation?
   LNONCOLLINEAR =      F non collinear calculations
   LSORBIT =      F    spin-orbit coupling
   INIWAV =      1    electr: 0-lowe 1-rand  2-diag
   LASPH  =      F    aspherical Exc in radial PAW
   METAGGA=      F    non-selfconsistent MetaGGA calc.

 Electronic Relaxation 1
   ENCUT  =  400.0 eV  29.40 Ry    5.42 a.u.  22.30 22.30 24.08*2*pi/ulx,y,z
   ENINI  =  400.0     initial cutoff
   ENAUG  =  605.4 eV  augmentation charge cutoff
   NELM   =    100;   NELMIN=  2; NELMDL= -5     # of ELM steps 
   EDIFF  = 0.1E-04   stopping-criterion for ELM
   LREAL  =      T    real-space projection
   NLSPLINE    = F    spline interpolate recip. space projectors
   LCOMPAT=      F    compatible to vasp.4.4
   GGA_COMPAT  = T    GGA compatible to vasp.4.4-vasp.4.6
   LMAXPAW     = -100 max onsite density
   LMAXMIX     =    2 max onsite mixed and CHGCAR
   VOSKOWN=      0    Vosko Wilk Nusair interpolation
   ROPT   =   -0.00025  -0.00025
 Ionic relaxation
   EDIFFG = -.1E-01   stopping-criterion for IOM
   NSW    =    500    number of steps for IOM
   NBLOCK =      1;   KBLOCK =    500    inner block; outer block 
   IBRION =      1    ionic relax: 0-MD 1-quasi-New 2-CG
   NFREE  =      0    steps in history (QN), initial steepest desc. (CG)
   ISIF   =      2    stress and relaxation
   IWAVPR =     11    prediction:  0-non 1-charg 2-wave 3-comb
   ISYM   =      2    0-nonsym 1-usesym 2-fastsym
   LCORR  =      T    Harris-Foulkes like correction to forces

   POTIM  = 0.5000    time-step for ionic-motion
   TEIN   =    0.0    initial temperature
   TEBEG  =    0.0;   TEEND  =   0.0 temperature during run
   SMASS  =  -3.00    Nose mass-parameter (am)
   estimated Nose-frequenzy (Omega)   =  0.10E-29 period in steps =****** mass=  -0.427E-26a.u.
   SCALEE = 1.0000    scale energy and forces
   NPACO  =    256;   APACO  = 16.0  distance and # of slots for P.C.
   PSTRESS=    0.0 pullay stress

  Mass of Ions in am
   POMASS =  16.00 32.07
  Ionic Valenz
   ZVAL   =   6.00  6.00
  Atomic Wigner-Seitz radii
   RWIGS  =  -1.00 -1.00
  virtual crystal weights 
   VCA    =   1.00  1.00
   NELECT =      18.0000    total number of electrons
   NUPDOWN=      -1.0000    fix difference up-down

 DOS related values:
   EMIN   =  10.00;   EMAX   =-10.00  energy-range for DOS
   EFERMI =   0.00
   ISMEAR =     0;   SIGMA  =   0.05  broadening in eV -4-tet -1-fermi 0-gaus

 Electronic relaxation 2 (details)
   IALGO  =     38    algorithm
   LDIAG  =      T    sub-space diagonalisation (order eigenvalues)
   LSUBROT=      F    optimize rotation matrix (better conditioning)
   TURBO    =      0    0=normal 1=particle mesh
   IRESTART =      0    0=no restart 2=restart with 2 vectors
   NREBOOT  =      0    no. of reboots
   NMIN     =      0    reboot dimension
   EREF     =   0.00    reference energy to select bands
   IMIX   =      4    mixing-type and parameters
     AMIX     =   0.40;   BMIX     =  1.00
     AMIX_MAG =   1.60;   BMIX_MAG =  1.00
     AMIN     =   0.10
     WC   =   100.;   INIMIX=   1;  MIXPRE=   1;  MAXMIX= -45

 Intra band minimization:
   WEIMIN = 0.0010     energy-eigenvalue tresh-hold
   EBREAK =  0.16E-06  absolut break condition
   DEPER  =   0.30     relativ break condition  

   TIME   =   0.40     timestep for ELM

  volume/ion in A,a.u.               =     797.18      5379.64
  Fermi-wavevector in a.u.,A,eV,Ry     =   0.320829  0.606278  1.400462  0.102931
  Thomas-Fermi vector in A             =   1.207787
 
 Write flags
   LWAVE        =      F    write WAVECAR
   LDOWNSAMPLE  =      F    k-point downsampling of WAVECAR
   LCHARG       =      F    write CHGCAR
   LVTOT        =      F    write LOCPOT, total local potential
   LVHAR        =      F    write LOCPOT, Hartree potential only
   LELF         =      F    write electronic localiz. function (ELF)
   LORBIT       =     11    0 simple, 1 ext, 2 COOP (PROOUT), +10 PAW based schemes


 Dipole corrections
   LMONO  =      F    monopole corrections only (constant potential shift)
   LDIPOL =      F    correct potential (dipole corrections)
   IDIPOL =      0    1-x, 2-y, 3-z, 4-all directions 
   EPSILON=  1.0000000 bulk dielectric constant

 Exchange correlation treatment:
   GGA     =    --    GGA type
   LEXCH   =     8    internal setting for exchange type
   VOSKOWN=      0    Vosko Wilk Nusair interpolation
   LHFCALC =     F    Hartree Fock is set to
   LHFONE  =     F    Hartree Fock one center treatment
   AEXX    =    0.0000 exact exchange contribution

 Linear response parameters
   LEPSILON=     F    determine dielectric tensor
   LRPA    =     F    only Hartree local field effects (RPA)
   LNABLA  =     F    use nabla operator in PAW spheres
   LVEL    =     F    velocity operator in full k-point grid
   LINTERFAST=   F  fast interpolation
   KINTER  =     0    interpolate to denser k-point grid
   CSHIFT  =0.1000    complex shift for real part using Kramers Kronig
   OMEGAMAX=  -1.0    maximum frequency
   DEG_THRESHOLD= 0.2000000E-02 threshold for treating states as degnerate
   RTIME   =   -0.100 relaxation time in fs
  (WPLASMAI=    0.000 imaginary part of plasma frequency in eV, 0.658/RTIME)
   DFIELD  = 0.0000000 0.0000000 0.0000000 field for delta impulse in time
 
 Orbital magnetization related:
   ORBITALMAG=     F  switch on orbital magnetization
   LCHIMAG   =     F  perturbation theory with respect to B field
   DQ        =  0.001000  dq finite difference perturbation B field
   LLRAUG    =     F  two centre corrections for induced B field



--------------------------------------------------------------------------------------------------------


 quasi-Newton-method for relaxation of ions
 charge density and potential will be updated during run
 spin polarized calculation
 Variant of blocked Davidson
 Davidson routine will perform the subspace rotation
 perform sub-space diagonalisation
    after iterative eigenvector-optimisation
 modified Broyden-mixing scheme, WC =      100.0
 initial mixing is a Kerker type mixing with AMIX =  0.4000 and BMIX =      1.0000
 Hartree-type preconditioning will be used
 using additional bands            7
 real space projection scheme for non local part
 use partial core corrections
 calculate Harris-corrections to forces 
   (improved forces if not selfconsistent)
 use gradient corrections 
 use of overlap-Matrix (Vanderbilt PP)
 Gauss-broadening in eV      SIGMA  =   0.05


--------------------------------------------------------------------------------------------------------


  energy-cutoff  :      400.00
  volume of cell :     2391.54
      direct lattice vectors                 reciprocal lattice vectors
    13.675000191  0.000000000  0.000000000     0.073126142  0.042219398  0.000000000
    -6.837500095 11.842897562  0.000000000     0.000000000  0.084438795  0.000000000
     0.000000000  0.000000000 14.767000198     0.000000000  0.000000000  0.067718561

  length of vectors
    13.675000191 13.675000191 14.767000198     0.084438795  0.084438795  0.067718561


 
 k-points in units of 2pi/SCALE and weight: Gamma points only                       
   0.00000000  0.00000000  0.00000000       1.000
 
 k-points in reciprocal lattice and weights: Gamma points only                       
   0.00000000  0.00000000  0.00000000       1.000
 
 position of ions in fractional coordinates (direct lattice) 
   0.83541697  0.51442778  0.68143421
   0.79479003  0.63298100  0.62138599
   0.79478985  0.52298099  0.60138637
 
 position of ions in cartesian coordinates  (Angst):
   7.90692726  6.09231551 10.06273917
   6.54074615  7.49632917  9.17600707
   7.29286881  6.19361027  8.88067262
 


--------------------------------------------------------------------------------------------------------


 k-point  1 :   0.0000 0.0000 0.0000  plane waves:   43405

 maximum and minimum number of plane-waves per node :     10852    10850

 maximum number of plane-waves:     43405
 maximum index in each direction: 
   IXMAX=   22   IYMAX=   22   IZMAX=   24
   IXMIN=  -22   IYMIN=  -22   IZMIN=  -24


 real space projection operators:
  total allocation   :        804.25 KBytes
  max/ min on nodes  :        202.00        200.19


 parallel 3D FFT for wavefunctions:
    minimum data exchange during FFTs selected (reduces bandwidth)
 parallel 3D FFT for charge:
    minimum data exchange during FFTs selected (reduces bandwidth)


 total amount of memory used by VASP MPI-rank0   145292. kBytes
=======================================================================

   base      :      30000. kBytes
   nonlr-proj:        485. kBytes
   fftplans  :      63994. kBytes
   grid      :      49417. kBytes
   one-center:          6. kBytes
   wavefun   :       1390. kBytes
 
     INWAV:  cpu time    0.0000: real time    0.0001
 Broyden mixing: mesh for mixing (old mesh)
   NGX = 45   NGY = 45   NGZ = 49
  (NGX  =180   NGY  =180   NGZ  =192)
  gives a total of  99225 points

 initial charge density was supplied:
 charge density of overlapping atoms calculated
 number of electron      18.0000000 magnetization       3.0000000
 keeping initial charge density in first step


--------------------------------------------------------------------------------------------------------


 Maximum index for non-local projection operator         1126
 Maximum index for augmentation-charges         4857 (set IRDMAX)


--------------------------------------------------------------------------------------------------------


 First call to EWALD:  gamma=   0.133
 Maximum number of real-space cells 3x 3x 3
 Maximum number of reciprocal cells 3x 3x 3

    FEWALD:  cpu time    0.0012: real time    0.0012


--------------------------------------- Iteration      1(   1)  ---------------------------------------


    POTLOK:  cpu time    0.5214: real time    0.5414
    SETDIJ:  cpu time    0.2666: real time    0.2672
     EDDAV:  cpu time    0.4601: real time    0.4613
       DOS:  cpu time    0.0002: real time    0.0002
    --------------------------------------------
      LOOP:  cpu time    1.2484: real time    1.2702

 eigenvalue-minimisations  :    96
 total energy-change (2. order) : 0.1335321E+03  (-0.4041452E+03)
 number of electron      18.0000000 magnetization       3.0000000
 augmentation part       18.0000000 magnetization       3.0000000

 Free energy of the ion-electron system (eV)
  ---------------------------------------------------
  alpha Z        PSCENC =         0.53791023
  Ewald energy   TEWEN  =       476.24308274
  -Hartree energ DENC   =     -1402.94435457
  -exchange      EXHF   =         0.00000000
  -V(xc)+E(xc)   XCENC  =        67.99877673
  PAW double counting   =       590.90175278     -591.39117139
  entropy T*S    EENTRO =        -0.00002126
  eigenvalues    EBANDS =      -149.15868760
  atomic energy  EATOM  =      1141.34479484
  Solvation  Ediel_sol  =         0.00000000
  ---------------------------------------------------
  free energy    TOTEN  =       133.53208251 eV

  energy without entropy =      133.53210377  energy(sigma->0) =      133.53209314


--------------------------------------------------------------------------------------------------------




--------------------------------------- Iteration      1(   2)  ---------------------------------------


     EDDAV:  cpu time    0.5840: real time    0.5945
       DOS:  cpu time    0.0001: real time    0.0001
    --------------------------------------------
      LOOP:  cpu time    0.5841: real time    0.5946

 eigenvalue-minimisations  :   128
 total energy-change (2. order) :-0.1198899E+03  (-0.1183909E+03)
 number of electron      18.0000000 magnetization       3.0000000
 augmentation part       18.0000000 magnetization       3.0000000

 Free energy of the ion-electron system (eV)
  ---------------------------------------------------
  alpha Z        PSCENC =         0.53791023
  Ewald energy   TEWEN  =       476.24308274
  -Hartree energ DENC   =     -1402.94435457
  -exchange      EXHF   =         0.00000000
  -V(xc)+E(xc)   XCENC  =        67.99877673
  PAW double counting   =       590.90175278     -591.39117139
  entropy T*S    EENTRO =        -0.00000000
  eigenvalues    EBANDS =      -269.04865136
  atomic energy  EATOM  =      1141.34479484
  Solvation  Ediel_sol  =         0.00000000
  ---------------------------------------------------
  free energy    TOTEN  =        13.64214000 eV

  energy without entropy =       13.64214000  energy(sigma->0) =       13.64214000


--------------------------------------------------------------------------------------------------------




--------------------------------------- Iteration      1(   3)  ---------------------------------------


     EDDAV:  cpu time    0.3950: real time    0.3961
       DOS:  cpu time    0.0001: real time    0.0001
    --------------------------------------------
      LOOP:  cpu time    0.3951: real time    0.3962

 eigenvalue-minimisations  :    80
 total energy-change (2. order) :-0.2956100E+02  (-0.2939763E+02)
 number of electron      18.0000000 magnetization       3.0000000
 augmentation part       18.0000000 magnetization       3.0000000

 Free energy of the ion-electron system (eV)
  ---------------------------------------------------
  alpha Z        PSCENC =         0.53791023
  Ewald energy   TEWEN  =       476.24308274
  -Hartree energ DENC   =     -1402.94435457
  -exchange      EXHF   =         0.00000000
  -V(xc)+E(xc)   XCENC  =        67.99877673
  PAW double counting   =       590.90175278     -591.39117139
  entropy T*S    EENTRO =        -0.00000000
  eigenvalues    EBANDS =      -298.60964726
  atomic energy  EATOM  =      1141.34479484
  Solvation  Ediel_sol  =         0.00000000
  ---------------------------------------------------
  free energy    TOTEN  =       -15.91885590 eV

  energy without entropy =      -15.91885590  energy(sigma->0) =      -15.91885590


--------------------------------------------------------------------------------------------------------




--------------------------------------- Iteration      1(   4)  ---------------------------------------


     EDDAV:  cpu time    0.3334: real time    0.3343
       DOS:  cpu time    0.0001: real time    0.0001
    --------------------------------------------
      LOOP:  cpu time    0.3334: real time    0.3344

 eigenvalue-minimisations  :    64
 total energy-change (2. order) :-0.2390358E+01  (-0.2386941E+01)
 number of electron      18.0000000 magnetization       3.0000000
 augmentation part       18.0000000 magnetization       3.0000000

 Free energy of the ion-electron system (eV)
  ---------------------------------------------------
  alpha Z        PSCENC =         0.53791023
  Ewald energy   TEWEN  =       476.24308274
  -Hartree energ DENC   =     -1402.94435457
  -exchange      EXHF   =         0.00000000
  -V(xc)+E(xc)   XCENC  =        67.99877673
  PAW double counting   =       590.90175278     -591.39117139
  entropy T*S    EENTRO =        -0.00000000
  eigenvalues    EBANDS =      -301.00000494
  atomic energy  EATOM  =      1141.34479484
  Solvation  Ediel_sol  =         0.00000000
  ---------------------------------------------------
  free energy    TOTEN  =       -18.30921357 eV

  energy without entropy =      -18.30921357  energy(sigma->0) =      -18.30921357


--------------------------------------------------------------------------------------------------------




--------------------------------------- Iteration      1(   5)  ---------------------------------------


     EDDAV:  cpu time    0.4075: real time    0.4086
       DOS:  cpu time    0.0001: real time    0.0001
    CHARGE:  cpu time    0.3193: real time    0.3201
    MIXING:  cpu time    0.0104: real time    0.0104
    --------------------------------------------
      LOOP:  cpu time    0.7374: real time    0.7393

 eigenvalue-minimisations  :    80
 total energy-change (2. order) :-0.3994721E-01  (-0.3979403E-01)
 number of electron      18.0000000 magnetization       2.2642137
 augmentation part        0.7887945 magnetization       2.3004433

 Broyden mixing:
  rms(total) = 0.14598E+01    rms(broyden)= 0.14588E+01
  rms(prec ) = 0.16327E+01
  weight for this iteration     100.00

 Free energy of the ion-electron system (eV)
  ---------------------------------------------------
  alpha Z        PSCENC =         0.53791023
  Ewald energy   TEWEN  =       476.24308274
  -Hartree energ DENC   =     -1402.94435457
  -exchange      EXHF   =         0.00000000
  -V(xc)+E(xc)   XCENC  =        67.99877673
  PAW double counting   =       590.90175278     -591.39117139
  entropy T*S    EENTRO =        -0.00000000
  eigenvalues    EBANDS =      -301.03995215
  atomic energy  EATOM  =      1141.34479484
  Solvation  Ediel_sol  =         0.00000000
  ---------------------------------------------------
  free energy    TOTEN  =       -18.34916078 eV

  energy without entropy =      -18.34916078  energy(sigma->0) =      -18.34916078


--------------------------------------------------------------------------------------------------------




--------------------------------------- Iteration      1(   6)  ---------------------------------------


    POTLOK:  cpu time    0.5071: real time    0.5084
    SETDIJ:  cpu time    0.2656: real time    0.2662
     EDDAV:  cpu time    0.3324: real time    0.3332
       DOS:  cpu time    0.0001: real time    0.0001
    CHARGE:  cpu time    0.3157: real time    0.3164
    MIXING:  cpu time    0.0110: real time    0.0111
    --------------------------------------------
      LOOP:  cpu time    1.4318: real time    1.4354

 eigenvalue-minimisations  :    64
 total energy-change (2. order) : 0.1137492E+02  (-0.1997792E+01)
 number of electron      18.0000000 magnetization       1.7546877
 augmentation part        0.4257357 magnetization       1.7034973

 Broyden mixing:
  rms(total) = 0.46142E+00    rms(broyden)= 0.46045E+00
  rms(prec ) = 0.49054E+00
  weight for this iteration     100.00

 eigenvalues of (default mixing * dielectric matrix)
  average eigenvalue GAMMA=   0.9182
  0.9182

 Free energy of the ion-electron system (eV)
  ---------------------------------------------------
  alpha Z        PSCENC =         0.53791023
  Ewald energy   TEWEN  =       476.24308274
  -Hartree energ DENC   =     -1438.09912343
  -exchange      EXHF   =         0.00000000
  -V(xc)+E(xc)   XCENC  =        76.51873587
  PAW double counting   =       686.33916214     -687.28381388
  entropy T*S    EENTRO =        -0.00000000
  eigenvalues    EBANDS =      -262.57499116
  atomic energy  EATOM  =      1141.34479484
  Solvation  Ediel_sol  =         0.00000000
  ---------------------------------------------------
  free energy    TOTEN  =        -6.97424264 eV

  energy without entropy =       -6.97424264  energy(sigma->0) =       -6.97424264


--------------------------------------------------------------------------------------------------------




--------------------------------------- Iteration      1(   7)  ---------------------------------------


    POTLOK:  cpu time    0.5073: real time    0.5086
    SETDIJ:  cpu time    0.2656: real time    0.2663
     EDDAV:  cpu time    0.3629: real time    0.3637
       DOS:  cpu time    0.0001: real time    0.0001
    CHARGE:  cpu time    0.3130: real time    0.3137
    MIXING:  cpu time    0.0127: real time    0.0127
    --------------------------------------------
      LOOP:  cpu time    1.4615: real time    1.4651

 eigenvalue-minimisations  :    72
 total energy-change (2. order) :-0.4159073E+01  (-0.4044877E+00)
 number of electron      18.0000000 magnetization       1.3361181
 augmentation part        0.3934257 magnetization       1.3013728

 Broyden mixing:
  rms(total) = 0.28602E+00    rms(broyden)= 0.28586E+00
  rms(prec ) = 0.30981E+00
  weight for this iteration     100.00

 eigenvalues of (default mixing * dielectric matrix)
  average eigenvalue GAMMA=   0.9599
  0.9599  0.9599

 Free energy of the ion-electron system (eV)
  ---------------------------------------------------
  alpha Z        PSCENC =         0.53791023
  Ewald energy   TEWEN  =       476.24308274
  -Hartree energ DENC   =     -1440.45931737
  -exchange      EXHF   =         0.00000000
  -V(xc)+E(xc)   XCENC  =        73.55421836
  PAW double counting   =       706.09337047     -706.93276680
  entropy T*S    EENTRO =        -0.00000000
  eigenvalues    EBANDS =      -261.51460826
  atomic energy  EATOM  =      1141.34479484
  Solvation  Ediel_sol  =         0.00000000
  ---------------------------------------------------
  free energy    TOTEN  =       -11.13331579 eV

  energy without entropy =      -11.13331579  energy(sigma->0) =      -11.13331579


--------------------------------------------------------------------------------------------------------




--------------------------------------- Iteration      1(   8)  ---------------------------------------


    POTLOK:  cpu time    0.5070: real time    0.5083
    SETDIJ:  cpu time    0.2657: real time    0.2663
     EDDAV:  cpu time    0.4563: real time    0.4574
       DOS:  cpu time    0.0001: real time    0.0001
    CHARGE:  cpu time    0.3123: real time    0.3131
    MIXING:  cpu time    0.0125: real time    0.0125
    --------------------------------------------
      LOOP:  cpu time    1.5538: real time    1.5577

 eigenvalue-minimisations  :    96
 total energy-change (2. order) :-0.1471997E+01  (-0.6266208E-01)
 number of electron      18.0000000 magnetization       0.7019215
 augmentation part        0.4032653 magnetization       0.6823125

 Broyden mixing:
  rms(total) = 0.16643E+00    rms(broyden)= 0.16637E+00
  rms(prec ) = 0.18182E+00
  weight for this iteration     100.00

 eigenvalues of (default mixing * dielectric matrix)
  average eigenvalue GAMMA=   1.2021
  1.8886  1.0442  0.6734

 Free energy of the ion-electron system (eV)
  ---------------------------------------------------
  alpha Z        PSCENC =         0.53791023
  Ewald energy   TEWEN  =       476.24308274
  -Hartree energ DENC   =     -1441.11016569
  -exchange      EXHF   =         0.00000000
  -V(xc)+E(xc)   XCENC  =        72.32852416
  PAW double counting   =       717.37770514     -718.17371482
  entropy T*S    EENTRO =        -0.00000000
  eigenvalues    EBANDS =      -261.15344909
  atomic energy  EATOM  =      1141.34479484
  Solvation  Ediel_sol  =         0.00000000
  ---------------------------------------------------
  free energy    TOTEN  =       -12.60531250 eV

  energy without entropy =      -12.60531250  energy(sigma->0) =      -12.60531250


--------------------------------------------------------------------------------------------------------




--------------------------------------- Iteration      1(   9)  ---------------------------------------


    POTLOK:  cpu time    0.5097: real time    0.5112
    SETDIJ:  cpu time    0.2655: real time    0.2662
     EDDAV:  cpu time    0.3634: real time    0.3642
       DOS:  cpu time    0.0001: real time    0.0001
    CHARGE:  cpu time    0.3129: real time    0.3136
    MIXING:  cpu time    0.0130: real time    0.0131
    --------------------------------------------
      LOOP:  cpu time    1.4646: real time    1.4683

 eigenvalue-minimisations  :    72
 total energy-change (2. order) :-0.1488918E+01  (-0.7158222E-01)
 number of electron      18.0000000 magnetization       0.4980885
 augmentation part        0.4281228 magnetization       0.4908213

 Broyden mixing:
  rms(total) = 0.54906E-01    rms(broyden)= 0.54813E-01
  rms(prec ) = 0.70721E-01
  weight for this iteration     100.00

 eigenvalues of (default mixing * dielectric matrix)
  average eigenvalue GAMMA=   1.1649
  2.0857  0.9522  0.9522  0.6696

 Free energy of the ion-electron system (eV)
  ---------------------------------------------------
  alpha Z        PSCENC =         0.53791023
  Ewald energy   TEWEN  =       476.24308274
  -Hartree energ DENC   =     -1441.84741074
  -exchange      EXHF   =         0.00000000
  -V(xc)+E(xc)   XCENC  =        71.05045830
  PAW double counting   =       731.93548974     -732.67621972
  entropy T*S    EENTRO =        -0.00000000
  eigenvalues    EBANDS =      -260.68233595
  atomic energy  EATOM  =      1141.34479484
  Solvation  Ediel_sol  =         0.00000000
  ---------------------------------------------------
  free energy    TOTEN  =       -14.09423055 eV

  energy without entropy =      -14.09423055  energy(sigma->0) =      -14.09423055


--------------------------------------------------------------------------------------------------------




--------------------------------------- Iteration      1(  10)  ---------------------------------------


    POTLOK:  cpu time    0.5064: real time    0.5105
    SETDIJ:  cpu time    0.2659: real time    0.2665
     EDDAV:  cpu time    0.4343: real time    0.4354
       DOS:  cpu time    0.0001: real time    0.0001
    CHARGE:  cpu time    0.3167: real time    0.3175
    MIXING:  cpu time    0.0139: real time    0.0139
    --------------------------------------------
      LOOP:  cpu time    1.5373: real time    1.5439

 eigenvalue-minimisations  :    88
 total energy-change (2. order) :-0.4438539E+00  (-0.7005843E-02)
 number of electron      18.0000000 magnetization       0.3189889
 augmentation part        0.4073755 magnetization       0.3151511

 Broyden mixing:
  rms(total) = 0.30937E-01    rms(broyden)= 0.30890E-01
  rms(prec ) = 0.39786E-01
  weight for this iteration     100.00

 eigenvalues of (default mixing * dielectric matrix)
  average eigenvalue GAMMA=   1.1811
  2.2628  1.2405  0.8849  0.8849  0.6325

 Free energy of the ion-electron system (eV)
  ---------------------------------------------------
  alpha Z        PSCENC =         0.53791023
  Ewald energy   TEWEN  =       476.24308274
  -Hartree energ DENC   =     -1442.53103414
  -exchange      EXHF   =         0.00000000
  -V(xc)+E(xc)   XCENC  =        70.67256202
  PAW double counting   =       735.18441013     -735.92920020
  entropy T*S    EENTRO =        -0.00000000
  eigenvalues    EBANDS =      -260.06061005
  atomic energy  EATOM  =      1141.34479484
  Solvation  Ediel_sol  =         0.00000000
  ---------------------------------------------------
  free energy    TOTEN  =       -14.53808443 eV

  energy without entropy =      -14.53808443  energy(sigma->0) =      -14.53808443


--------------------------------------------------------------------------------------------------------




--------------------------------------- Iteration      1(  11)  ---------------------------------------


    POTLOK:  cpu time    0.5227: real time    0.5241
    SETDIJ:  cpu time    0.2662: real time    0.2669
     EDDAV:  cpu time    0.3443: real time    0.3451
       DOS:  cpu time    0.0001: real time    0.0001
    CHARGE:  cpu time    0.3178: real time    0.3185
    MIXING:  cpu time    0.0128: real time    0.0128
    --------------------------------------------
      LOOP:  cpu time    1.4638: real time    1.4674

 eigenvalue-minimisations  :    64
 total energy-change (2. order) :-0.5775734E+00  (-0.2780732E-02)
 number of electron      18.0000000 magnetization       0.1693449
 augmentation part        0.4067241 magnetization       0.1671463

 Broyden mixing:
  rms(total) = 0.16209E-01    rms(broyden)= 0.16198E-01
  rms(prec ) = 0.24126E-01
  weight for this iteration     100.00

 eigenvalues of (default mixing * dielectric matrix)
  average eigenvalue GAMMA=   1.2021
  2.4141  1.4863  0.8982  0.8982  0.6407  0.8752

 Free energy of the ion-electron system (eV)
  ---------------------------------------------------
  alpha Z        PSCENC =         0.53791023
  Ewald energy   TEWEN  =       476.24308274
  -Hartree energ DENC   =     -1441.41449878
  -exchange      EXHF   =         0.00000000
  -V(xc)+E(xc)   XCENC  =        70.05629026
  PAW double counting   =       733.80635545     -734.52774255
  entropy T*S    EENTRO =        -0.00000000
  eigenvalues    EBANDS =      -261.16185001
  atomic energy  EATOM  =      1141.34479484
  Solvation  Ediel_sol  =         0.00000000
  ---------------------------------------------------
  free energy    TOTEN  =       -15.11565783 eV

  energy without entropy =      -15.11565783  energy(sigma->0) =      -15.11565783


--------------------------------------------------------------------------------------------------------




--------------------------------------- Iteration      1(  12)  ---------------------------------------


    POTLOK:  cpu time    0.5058: real time    0.5071
    SETDIJ:  cpu time    0.2661: real time    0.2667
     EDDAV:  cpu time    0.4241: real time    0.4251
       DOS:  cpu time    0.0001: real time    0.0001
    CHARGE:  cpu time    0.3145: real time    0.3152
    MIXING:  cpu time    0.0137: real time    0.0137
    --------------------------------------------
      LOOP:  cpu time    1.5242: real time    1.5280

 eigenvalue-minimisations  :    88
 total energy-change (2. order) :-0.2312852E+00  (-0.7626504E-03)
 number of electron      18.0000000 magnetization       0.0626835
 augmentation part        0.4070397 magnetization       0.0614573

 Broyden mixing:
  rms(total) = 0.96186E-02    rms(broyden)= 0.96147E-02
  rms(prec ) = 0.16367E-01
  weight for this iteration     100.00

 eigenvalues of (default mixing * dielectric matrix)
  average eigenvalue GAMMA=   1.2755
  2.6331  2.0648  0.9525  0.9525  0.9457  0.6404  0.7396

 Free energy of the ion-electron system (eV)
  ---------------------------------------------------
  alpha Z        PSCENC =         0.53791023
  Ewald energy   TEWEN  =       476.24308274
  -Hartree energ DENC   =     -1440.82181716
  -exchange      EXHF   =         0.00000000
  -V(xc)+E(xc)   XCENC  =        69.80083767
  PAW double counting   =       733.26642626     -733.97760323
  entropy T*S    EENTRO =        -0.00000000
  eigenvalues    EBANDS =      -261.74057440
  atomic energy  EATOM  =      1141.34479484
  Solvation  Ediel_sol  =         0.00000000
  ---------------------------------------------------
  free energy    TOTEN  =       -15.34694305 eV

  energy without entropy =      -15.34694305  energy(sigma->0) =      -15.34694305


--------------------------------------------------------------------------------------------------------




--------------------------------------- Iteration      1(  13)  ---------------------------------------


    POTLOK:  cpu time    0.5063: real time    0.5077
    SETDIJ:  cpu time    0.2660: real time    0.2667
     EDDAV:  cpu time    0.3933: real time    0.3943
       DOS:  cpu time    0.0001: real time    0.0001
    CHARGE:  cpu time    0.3150: real time    0.3158
    MIXING:  cpu time    0.0132: real time    0.0132
    --------------------------------------------
      LOOP:  cpu time    1.4939: real time    1.4977

 eigenvalue-minimisations  :    80
 total energy-change (2. order) :-0.1331082E+00  (-0.2729228E-03)
 number of electron      18.0000000 magnetization      -0.0195811
 augmentation part        0.4071703 magnetization      -0.0200336

 Broyden mixing:
  rms(total) = 0.56169E-02    rms(broyden)= 0.56131E-02
  rms(prec ) = 0.11309E-01
  weight for this iteration     100.00

 eigenvalues of (default mixing * dielectric matrix)
  average eigenvalue GAMMA=   1.3663
  3.1343  2.3102  1.1677  1.1011  0.9369  0.9369  0.6318  0.7113

 Free energy of the ion-electron system (eV)
  ---------------------------------------------------
  alpha Z        PSCENC =         0.53791023
  Ewald energy   TEWEN  =       476.24308274
  -Hartree energ DENC   =     -1440.46712467
  -exchange      EXHF   =         0.00000000
  -V(xc)+E(xc)   XCENC  =        69.65110273
  PAW double counting   =       732.84038625     -733.54772555
  entropy T*S    EENTRO =        -0.00000000
  eigenvalues    EBANDS =      -262.08247780
  atomic energy  EATOM  =      1141.34479484
  Solvation  Ediel_sol  =         0.00000000
  ---------------------------------------------------
  free energy    TOTEN  =       -15.48005123 eV

  energy without entropy =      -15.48005123  energy(sigma->0) =      -15.48005123


--------------------------------------------------------------------------------------------------------




--------------------------------------- Iteration      1(  14)  ---------------------------------------


    POTLOK:  cpu time    0.5057: real time    0.5070
    SETDIJ:  cpu time    0.2654: real time    0.2661
     EDDAV:  cpu time    0.3943: real time    0.3952
       DOS:  cpu time    0.0001: real time    0.0001
    CHARGE:  cpu time    0.3158: real time    0.3166
    MIXING:  cpu time    0.0133: real time    0.0134
    --------------------------------------------
      LOOP:  cpu time    1.4946: real time    1.4983

 eigenvalue-minimisations  :    80
 total energy-change (2. order) :-0.2478460E-01  (-0.2080132E-03)
 number of electron      18.0000000 magnetization      -0.0344834
 augmentation part        0.4063053 magnetization      -0.0342715

 Broyden mixing:
  rms(total) = 0.31817E-02    rms(broyden)= 0.31787E-02
  rms(prec ) = 0.67127E-02
  weight for this iteration     100.00

 eigenvalues of (default mixing * dielectric matrix)
  average eigenvalue GAMMA=   1.3998
  3.6906  2.3332  1.5230  1.0959  0.9122  0.9122  0.6291  0.7918  0.7098

 Free energy of the ion-electron system (eV)
  ---------------------------------------------------
  alpha Z        PSCENC =         0.53791023
  Ewald energy   TEWEN  =       476.24308274
  -Hartree energ DENC   =     -1440.39882155
  -exchange      EXHF   =         0.00000000
  -V(xc)+E(xc)   XCENC  =        69.62196959
  PAW double counting   =       732.85425114     -733.56349389
  entropy T*S    EENTRO =        -0.00000000
  eigenvalues    EBANDS =      -262.14452892
  atomic energy  EATOM  =      1141.34479484
  Solvation  Ediel_sol  =         0.00000000
  ---------------------------------------------------
  free energy    TOTEN  =       -15.50483583 eV

  energy without entropy =      -15.50483583  energy(sigma->0) =      -15.50483583


--------------------------------------------------------------------------------------------------------




--------------------------------------- Iteration      1(  15)  ---------------------------------------


    POTLOK:  cpu time    0.5067: real time    0.5081
    SETDIJ:  cpu time    0.2657: real time    0.2663
     EDDAV:  cpu time    0.4243: real time    0.4253
       DOS:  cpu time    0.0001: real time    0.0001
    CHARGE:  cpu time    0.3150: real time    0.3158
    MIXING:  cpu time    0.0145: real time    0.0145
    --------------------------------------------
      LOOP:  cpu time    1.5263: real time    1.5301

 eigenvalue-minimisations  :    88
 total energy-change (2. order) :-0.1287337E-02  (-0.2726889E-04)
 number of electron      18.0000000 magnetization      -0.0287362
 augmentation part        0.4065222 magnetization      -0.0284641

 Broyden mixing:
  rms(total) = 0.24924E-02    rms(broyden)= 0.24919E-02
  rms(prec ) = 0.49349E-02
  weight for this iteration     100.00

 eigenvalues of (default mixing * dielectric matrix)
  average eigenvalue GAMMA=   1.4284
  3.8827  2.3712  1.8918  1.1986  0.9405  0.9405  0.9868  0.7610  0.6323  0.6788

 Free energy of the ion-electron system (eV)
  ---------------------------------------------------
  alpha Z        PSCENC =         0.53791023
  Ewald energy   TEWEN  =       476.24308274
  -Hartree energ DENC   =     -1440.37672392
  -exchange      EXHF   =         0.00000000
  -V(xc)+E(xc)   XCENC  =        69.61871328
  PAW double counting   =       732.88745892     -733.59773798
  entropy T*S    EENTRO =        -0.00000000
  eigenvalues    EBANDS =      -262.16362127
  atomic energy  EATOM  =      1141.34479484
  Solvation  Ediel_sol  =         0.00000000
  ---------------------------------------------------
  free energy    TOTEN  =       -15.50612317 eV

  energy without entropy =      -15.50612317  energy(sigma->0) =      -15.50612317


--------------------------------------------------------------------------------------------------------




--------------------------------------- Iteration      1(  16)  ---------------------------------------


    POTLOK:  cpu time    0.5068: real time    0.5082
    SETDIJ:  cpu time    0.2653: real time    0.2659
     EDDAV:  cpu time    0.3319: real time    0.3327
       DOS:  cpu time    0.0001: real time    0.0001
    CHARGE:  cpu time    0.3142: real time    0.3149
    MIXING:  cpu time    0.0148: real time    0.0148
    --------------------------------------------
      LOOP:  cpu time    1.4330: real time    1.4367

 eigenvalue-minimisations  :    64
 total energy-change (2. order) :-0.3265112E-02  (-0.4057036E-04)
 number of electron      18.0000000 magnetization      -0.0173506
 augmentation part        0.4067646 magnetization      -0.0171243

 Broyden mixing:
  rms(total) = 0.15930E-02    rms(broyden)= 0.15925E-02
  rms(prec ) = 0.27869E-02
  weight for this iteration     100.00

 eigenvalues of (default mixing * dielectric matrix)
  average eigenvalue GAMMA=   1.5063
  4.3161  2.7804  2.2021  1.4401  1.0811  0.9225  0.9225  0.8771  0.7399  0.6230
  0.6650

 Free energy of the ion-electron system (eV)
  ---------------------------------------------------
  alpha Z        PSCENC =         0.53791023
  Ewald energy   TEWEN  =       476.24308274
  -Hartree energ DENC   =     -1440.37238488
  -exchange      EXHF   =         0.00000000
  -V(xc)+E(xc)   XCENC  =        69.61557595
  PAW double counting   =       732.93578889     -733.64729435
  entropy T*S    EENTRO =        -0.00000000
  eigenvalues    EBANDS =      -262.16686170
  atomic energy  EATOM  =      1141.34479484
  Solvation  Ediel_sol  =         0.00000000
  ---------------------------------------------------
  free energy    TOTEN  =       -15.50938828 eV

  energy without entropy =      -15.50938828  energy(sigma->0) =      -15.50938828


--------------------------------------------------------------------------------------------------------




--------------------------------------- Iteration      1(  17)  ---------------------------------------


    POTLOK:  cpu time    0.5073: real time    0.5087
    SETDIJ:  cpu time    0.2650: real time    0.2657
     EDDAV:  cpu time    0.3625: real time    0.3633
       DOS:  cpu time    0.0001: real time    0.0001
    CHARGE:  cpu time    0.3146: real time    0.3153
    MIXING:  cpu time    0.0148: real time    0.0148
    --------------------------------------------
      LOOP:  cpu time    1.4643: real time    1.4679

 eigenvalue-minimisations  :    72
 total energy-change (2. order) :-0.3452899E-02  (-0.2632824E-04)
 number of electron      18.0000000 magnetization      -0.0085871
 augmentation part        0.4066512 magnetization      -0.0084442

 Broyden mixing:
  rms(total) = 0.10928E-02    rms(broyden)= 0.10924E-02
  rms(prec ) = 0.16673E-02
  weight for this iteration     100.00

 eigenvalues of (default mixing * dielectric matrix)
  average eigenvalue GAMMA=   1.5572
  4.9190  3.0610  2.2130  1.6922  1.2165  0.9190  0.9190  0.9416  0.7923  0.7412
  0.6356  0.6356

 Free energy of the ion-electron system (eV)
  ---------------------------------------------------
  alpha Z        PSCENC =         0.53791023
  Ewald energy   TEWEN  =       476.24308274
  -Hartree energ DENC   =     -1440.36135251
  -exchange      EXHF   =         0.00000000
  -V(xc)+E(xc)   XCENC  =        69.61241943
  PAW double counting   =       732.90181438     -733.61322973
  entropy T*S    EENTRO =        -0.00000000
  eigenvalues    EBANDS =      -262.17828057
  atomic energy  EATOM  =      1141.34479484
  Solvation  Ediel_sol  =         0.00000000
  ---------------------------------------------------
  free energy    TOTEN  =       -15.51284118 eV

  energy without entropy =      -15.51284118  energy(sigma->0) =      -15.51284118


--------------------------------------------------------------------------------------------------------




--------------------------------------- Iteration      1(  18)  ---------------------------------------


    POTLOK:  cpu time    0.5066: real time    0.5080
    SETDIJ:  cpu time    0.2655: real time    0.2662
     EDDAV:  cpu time    0.4247: real time    0.4257
       DOS:  cpu time    0.0001: real time    0.0001
    CHARGE:  cpu time    0.3142: real time    0.3150
    MIXING:  cpu time    0.0158: real time    0.0159
    --------------------------------------------
      LOOP:  cpu time    1.5270: real time    1.5308

 eigenvalue-minimisations  :    88
 total energy-change (2. order) :-0.3093794E-02  (-0.8963242E-05)
 number of electron      18.0000000 magnetization      -0.0015091
 augmentation part        0.4065498 magnetization      -0.0014627

 Broyden mixing:
  rms(total) = 0.61907E-03    rms(broyden)= 0.61848E-03
  rms(prec ) = 0.10090E-02
  weight for this iteration     100.00

 eigenvalues of (default mixing * dielectric matrix)
  average eigenvalue GAMMA=   1.6540
  5.8546  3.3878  2.1396  2.1396  1.4390  0.9355  0.9355  0.9652  0.9652  0.7801
  0.6983  0.6254  0.6364

 Free energy of the ion-electron system (eV)
  ---------------------------------------------------
  alpha Z        PSCENC =         0.53791023
  Ewald energy   TEWEN  =       476.24308274
  -Hartree energ DENC   =     -1440.34282395
  -exchange      EXHF   =         0.00000000
  -V(xc)+E(xc)   XCENC  =        69.60878914
  PAW double counting   =       732.84688180     -733.55754815
  entropy T*S    EENTRO =        -0.00000000
  eigenvalues    EBANDS =      -262.19702162
  atomic energy  EATOM  =      1141.34479484
  Solvation  Ediel_sol  =         0.00000000
  ---------------------------------------------------
  free energy    TOTEN  =       -15.51593497 eV

  energy without entropy =      -15.51593497  energy(sigma->0) =      -15.51593497


--------------------------------------------------------------------------------------------------------




--------------------------------------- Iteration      1(  19)  ---------------------------------------


    POTLOK:  cpu time    0.5063: real time    0.5076
    SETDIJ:  cpu time    0.2654: real time    0.2660
     EDDAV:  cpu time    0.4018: real time    0.4027
       DOS:  cpu time    0.0001: real time    0.0001
    CHARGE:  cpu time    0.3135: real time    0.3142
    MIXING:  cpu time    0.0167: real time    0.0168
    --------------------------------------------
      LOOP:  cpu time    1.5037: real time    1.5074

 eigenvalue-minimisations  :    72
 total energy-change (2. order) :-0.1742486E-02  (-0.3216955E-05)
 number of electron      18.0000000 magnetization       0.0018536
 augmentation part        0.4065209 magnetization       0.0018448

 Broyden mixing:
  rms(total) = 0.32414E-03    rms(broyden)= 0.32327E-03
  rms(prec ) = 0.60182E-03
  weight for this iteration     100.00

 eigenvalues of (default mixing * dielectric matrix)
  average eigenvalue GAMMA=   1.7896
  7.2865  3.7854  2.4545  2.2377  1.7120  1.1813  0.9322  0.9322  0.9539  0.8621
  0.7738  0.6876  0.6331  0.6215

 Free energy of the ion-electron system (eV)
  ---------------------------------------------------
  alpha Z        PSCENC =         0.53791023
  Ewald energy   TEWEN  =       476.24308274
  -Hartree energ DENC   =     -1440.33618304
  -exchange      EXHF   =         0.00000000
  -V(xc)+E(xc)   XCENC  =        69.60678126
  PAW double counting   =       732.82610484     -733.53628324
  entropy T*S    EENTRO =        -0.00000000
  eigenvalues    EBANDS =      -262.20388510
  atomic energy  EATOM  =      1141.34479484
  Solvation  Ediel_sol  =         0.00000000
  ---------------------------------------------------
  free energy    TOTEN  =       -15.51767746 eV

  energy without entropy =      -15.51767746  energy(sigma->0) =      -15.51767746


--------------------------------------------------------------------------------------------------------




--------------------------------------- Iteration      1(  20)  ---------------------------------------


    POTLOK:  cpu time    0.5060: real time    0.5074
    SETDIJ:  cpu time    0.2649: real time    0.2656
     EDDAV:  cpu time    0.3646: real time    0.3655
       DOS:  cpu time    0.0001: real time    0.0001
    CHARGE:  cpu time    0.3146: real time    0.3154
    MIXING:  cpu time    0.0169: real time    0.0169
    --------------------------------------------
      LOOP:  cpu time    1.4671: real time    1.4708

 eigenvalue-minimisations  :    72
 total energy-change (2. order) :-0.2196462E-03  (-0.8690558E-06)
 number of electron      18.0000000 magnetization       0.0020138
 augmentation part        0.4065094 magnetization       0.0019995

 Broyden mixing:
  rms(total) = 0.18727E-03    rms(broyden)= 0.18619E-03
  rms(prec ) = 0.38275E-03
  weight for this iteration     100.00

 eigenvalues of (default mixing * dielectric matrix)
  average eigenvalue GAMMA=   1.8321
  8.1240  4.0104  2.6687  2.2002  1.8823  1.3159  0.9378  0.9378  0.9683  0.9683
  0.7953  0.7382  0.6840  0.6314  0.6195

 Free energy of the ion-electron system (eV)
  ---------------------------------------------------
  alpha Z        PSCENC =         0.53791023
  Ewald energy   TEWEN  =       476.24308274
  -Hartree energ DENC   =     -1440.34050955
  -exchange      EXHF   =         0.00000000
  -V(xc)+E(xc)   XCENC  =        69.60669445
  PAW double counting   =       732.83390672     -733.54405788
  entropy T*S    EENTRO =        -0.00000000
  eigenvalues    EBANDS =      -262.19971866
  atomic energy  EATOM  =      1141.34479484
  Solvation  Ediel_sol  =         0.00000000
  ---------------------------------------------------
  free energy    TOTEN  =       -15.51789711 eV

  energy without entropy =      -15.51789711  energy(sigma->0) =      -15.51789711


--------------------------------------------------------------------------------------------------------




--------------------------------------- Iteration      1(  21)  ---------------------------------------


    POTLOK:  cpu time    0.5157: real time    0.5180
    SETDIJ:  cpu time    0.2663: real time    0.2669
     EDDAV:  cpu time    0.3350: real time    0.3358
       DOS:  cpu time    0.0001: real time    0.0001
    --------------------------------------------
      LOOP:  cpu time    1.1171: real time    1.1209

 eigenvalue-minimisations  :    64
 total energy-change (2. order) : 0.5458428E-05  (-0.3453975E-06)
 number of electron      18.0000000 magnetization       0.0020138
 augmentation part        0.4065094 magnetization       0.0019995

 Free energy of the ion-electron system (eV)
  ---------------------------------------------------
  alpha Z        PSCENC =         0.53791023
  Ewald energy   TEWEN  =       476.24308274
  -Hartree energ DENC   =     -1440.34347924
  -exchange      EXHF   =         0.00000000
  -V(xc)+E(xc)   XCENC  =        69.60679370
  PAW double counting   =       732.84422786     -733.55453632
  entropy T*S    EENTRO =        -0.00000000
  eigenvalues    EBANDS =      -262.19668545
  atomic energy  EATOM  =      1141.34479484
  Solvation  Ediel_sol  =         0.00000000
  ---------------------------------------------------
  free energy    TOTEN  =       -15.51789165 eV

  energy without entropy =      -15.51789165  energy(sigma->0) =      -15.51789165


--------------------------------------------------------------------------------------------------------




 average (electrostatic) potential at core
  the test charge radii are     0.7215  0.9698
  (the norm of the test charge is              1.0000)
       1 -82.1701       2 -80.9195       3-100.3001
 
 
 
 E-fermi :  -6.8675     XC(G=0):  -0.4146     alpha+bet : -0.1482


 spin component 1

 k-point     1 :       0.0000    0.0000    0.0000
  band No.  band energies     occupation 
      1     -29.7762      1.00000
      2     -24.9708      1.00000
      3     -15.9854      1.00000
      4     -12.6380      1.00000
      5     -12.1407      1.00000
      6     -11.6336      1.00000
      7      -8.4476      1.00000
      8      -8.4075      1.00000
      9      -7.0985      1.00000
     10      -4.6545      0.00000
     11      -1.0807      0.00000
     12      -0.3483      0.00000
     13      -0.0371      0.00000
     14       0.4410      0.00000
     15       0.5918      0.00000
     16       0.7946      0.00000

 spin component 2

 k-point     1 :       0.0000    0.0000    0.0000
  band No.  band energies     occupation 
      1     -29.7762      1.00000
      2     -24.9708      1.00000
      3     -15.9854      1.00000
      4     -12.6379      1.00000
      5     -12.1407      1.00000
      6     -11.6336      1.00000
      7      -8.4475      1.00000
      8      -8.4075      1.00000
      9      -7.0985      1.00000
     10      -4.6543      0.00000
     11      -1.0763      0.00000
     12      -0.2883      0.00000
     13      -0.0211      0.00000
     14       0.4263      0.00000
     15       0.6656      0.00000
     16       0.9274      0.00000


--------------------------------------------------------------------------------------------------------


 soft charge-density along one line, spin component           1
         0         1         2         3         4         5         6         7         8         9
 total charge-density along one line
 
 soft charge-density along one line, spin component           2
         0         1         2         3         4         5         6         7         8         9
 total charge-density along one line
 
 pseudopotential strength for first ion, spin component:           1
 14.017  -0.561  -0.008   0.144   0.072   0.001  -0.008  -0.004
 -0.561   0.127   0.001  -0.016  -0.008  -0.000   0.003   0.001
 -0.008   0.001 -10.729   0.020  -0.029   0.342  -0.003   0.006
  0.144  -0.016   0.020 -10.891  -0.063  -0.003   0.367   0.009
  0.072  -0.008  -0.029  -0.063 -10.794   0.006   0.009   0.353
  0.001  -0.000   0.342  -0.003   0.006   0.111   0.001  -0.002
 -0.008   0.003  -0.003   0.367   0.009   0.001   0.105  -0.002
 -0.004   0.001   0.006   0.009   0.353  -0.002  -0.002   0.108
 pseudopotential strength for first ion, spin component:           2
 14.017  -0.561  -0.008   0.144   0.072   0.001  -0.008  -0.004
 -0.561   0.127   0.001  -0.016  -0.008  -0.000   0.003   0.001
 -0.008   0.001 -10.729   0.020  -0.029   0.342  -0.003   0.006
  0.144  -0.016   0.020 -10.891  -0.063  -0.003   0.367   0.009
  0.072  -0.008  -0.029  -0.063 -10.794   0.006   0.009   0.353
  0.001  -0.000   0.342  -0.003   0.006   0.111   0.001  -0.002
 -0.008   0.003  -0.003   0.367   0.009   0.001   0.105  -0.002
 -0.004   0.001   0.006   0.009   0.353  -0.002  -0.002   0.108
 total augmentation occupancy for first ion, spin component:           1
  1.937   0.192   0.020   0.087   0.027   0.006  -0.076  -0.039
  0.192   0.072  -0.000  -0.181  -0.084   0.005  -0.060  -0.031
  0.020  -0.000   1.632   0.019  -0.142   0.142  -0.006   0.002
  0.087  -0.181   0.019   1.631   0.089  -0.010   0.263   0.059
  0.027  -0.084  -0.142   0.089   1.548   0.000   0.057   0.175
  0.006   0.005   0.142  -0.010   0.000   0.019  -0.004  -0.001
 -0.076  -0.060  -0.006   0.263   0.057  -0.004   0.064   0.023
 -0.039  -0.031   0.002   0.059   0.175  -0.001   0.023   0.031
 total augmentation occupancy for first ion, spin component:           2
 -0.000  -0.000  -0.000  -0.000  -0.000  -0.000   0.000   0.000
 -0.000   0.000   0.000   0.000  -0.000   0.000   0.000   0.000
 -0.000   0.000  -0.000  -0.000   0.000  -0.000   0.000  -0.000
 -0.000   0.000  -0.000  -0.000  -0.000  -0.000  -0.000  -0.000
 -0.000  -0.000   0.000  -0.000   0.000  -0.000  -0.000  -0.000
 -0.000   0.000  -0.000  -0.000  -0.000   0.000   0.000  -0.000
  0.000   0.000   0.000  -0.000  -0.000   0.000  -0.000  -0.000
  0.000   0.000  -0.000  -0.000  -0.000  -0.000  -0.000  -0.000


------------------------ aborting loop because EDIFF is reached ----------------------------------------


 


 total charge     
 
# of ion       s       p       d       tot
------------------------------------------
    1        1.654   3.636   0.000   5.290
    2        1.632   3.394   0.000   5.026
    3        1.387   2.299   0.000   3.686
--------------------------------------------------
tot          4.674   9.329   0.000  14.002
 


 magnetization (x)
 
# of ion       s       p       d       tot
------------------------------------------
    1       -0.000  -0.000   0.000  -0.000
    2       -0.000  -0.000   0.000  -0.000
    3       -0.000  -0.000   0.000  -0.000
--------------------------------------------------
tot         -0.000  -0.000   0.000  -0.000
 
    CHARGE:  cpu time    0.3139: real time    0.3147
    FORLOC:  cpu time    0.0136: real time    0.0137
    FORNL :  cpu time    1.6908: real time    1.6948
    STRESS:  cpu time    5.3495: real time    5.3622
    FORCOR:  cpu time    0.4831: real time    0.4842
    FORHAR:  cpu time    0.0663: real time    0.0665
    MIXING:  cpu time    0.0178: real time    0.0179
    OFIELD:  cpu time    0.0000: real time    0.0000

  FORCE on cell =-STRESS in cart. coord.  units (eV):
  Direction    XX          YY          ZZ          XY          YZ          ZX
  --------------------------------------------------------------------------------------
  Alpha Z     0.53791     0.53791     0.53791
  Ewald     122.47709   211.04954   142.71643  -253.88490   -34.33080   186.83896
  Hartree   488.34907   536.59871   415.38630  -151.82936   -38.41583    94.33077
  E(xc)     -81.69883   -81.42311   -81.45926    -0.48496     0.04567     0.29432
  Local    -894.94764 -1035.04936  -838.91622   404.50856    69.85925  -276.24251
  n-local    21.62455    21.21487    27.93071     0.87131     1.68645     1.88307
  augment    -4.47057    -4.69346    -4.84146    -0.40868    -0.52474     0.40477
  Kinetic   351.17652   348.66386   345.55803    -0.06090    -3.78068     0.01097
  Fock        0.00000     0.00000     0.00000     0.00000     0.00000     0.00000
  -------------------------------------------------------------------------------------
  Total       3.04809    -3.10104     6.91243    -1.28892    -5.46068     7.52035
  in kB       2.04203    -2.07750     4.63088    -0.86349    -3.65830     5.03815
  external pressure =        1.53 kB  Pullay stress =        0.00 kB


 VOLUME and BASIS-vectors are now :
 -----------------------------------------------------------------------------
  energy-cutoff  :      400.00
  volume of cell :     2391.54
      direct lattice vectors                 reciprocal lattice vectors
    13.675000191  0.000000000  0.000000000     0.073126142  0.042219398  0.000000000
    -6.837500095 11.842897562  0.000000000     0.000000000  0.084438795  0.000000000
     0.000000000  0.000000000 14.767000198     0.000000000  0.000000000  0.067718561

  length of vectors
    13.675000191 13.675000191 14.767000198     0.084438795  0.084438795  0.067718561


 FORCES acting on ions
    electron-ion (+dipol)            ewald-force                    non-local-force                 convergence-correction
 -----------------------------------------------------------------------------------------------
   -.172E+03 0.896E+02 -.242E+03   0.203E+03 -.936E+02 0.302E+03   -.241E+02 -.230E+00 -.527E+02   -.804E-03 0.509E-03 0.161E-03
   0.157E+03 -.223E+03 0.125E+02   -.177E+03 0.258E+03 -.346E+01   0.192E+02 -.367E+02 -.126E+02   0.491E-03 -.547E-03 0.718E-03
   0.266E+02 0.165E+03 0.302E+03   -.255E+02 -.164E+03 -.299E+03   -.713E+01 0.552E+01 -.730E+01   -.507E-04 0.775E-03 0.210E-02
 -----------------------------------------------------------------------------------------------
   0.120E+02 0.314E+02 0.725E+02   0.000E+00 -.568E-13 0.000E+00   -.120E+02 -.314E+02 -.725E+02   -.363E-03 0.737E-03 0.298E-02
 
 
 POSITION                                       TOTAL-FORCE (eV/Angst)
 -----------------------------------------------------------------------------------
      7.90693      6.09232     10.06274         6.494576     -4.200449      7.874958
      6.54075      7.49633      9.17601        -0.478687     -1.723469     -3.592572
      7.29287      6.19361      8.88067        -6.015888      5.923918     -4.282386
 -----------------------------------------------------------------------------------
    total drift:                                0.000436      0.000238      0.000139


--------------------------------------------------------------------------------------------------------



  FREE ENERGIE OF THE ION-ELECTRON SYSTEM (eV)
  ---------------------------------------------------
  free  energy   TOTEN  =       -15.51789165 eV

  energy  without entropy=      -15.51789165  energy(sigma->0) =      -15.51789165
 


--------------------------------------------------------------------------------------------------------


    POTLOK:  cpu time    0.7792: real time    0.7811


--------------------------------------------------------------------------------------------------------


 stress matrix after NEB project (eV)
      3.04809     -1.28892      7.52035
     -1.28892     -3.10104     -5.46068
      7.52035     -5.46068      6.91243
  FORCES: max atom, RMS    11.038036    8.709513
  FORCE total and by dimension   15.085319    7.874958
  Stress total and by dimension   15.580789    7.520350
 Quasi-Newton relaxation of ions (Broydens 2nd method)
  g(Force)  = 0.110E+02   g(Stress)= 0.000E+00

 Reset! Starting new Quasi-Newton update for ions 


--------------------------------------------------------------------------------------------------------


    WAVPRE:  cpu time    0.0505: real time    0.0677
    FEWALD:  cpu time    0.0035: real time    0.0035

 real space projection operators:
  total allocation   :        804.62 KBytes
  max/ min on nodes  :        202.25        199.62

    ORTHCH:  cpu time    0.0372: real time    0.0373
     LOOP+:  cpu time   35.8380: real time   35.9828


--------------------------------------- Iteration      2(   1)  ---------------------------------------


    POTLOK:  cpu time    0.5084: real time    0.5223
    SETDIJ:  cpu time    0.2654: real time    0.2660
     EDDAV:  cpu time    0.3315: real time    0.3323
       DOS:  cpu time    0.0001: real time    0.0001
    CHARGE:  cpu time    0.3147: real time    0.3154
    MIXING:  cpu time    0.0109: real time    0.0109
    --------------------------------------------
      LOOP:  cpu time    1.4310: real time    1.4471

 eigenvalue-minimisations  :    64
 total energy-change (2. order) : 0.1797030E+02  (-0.1678148E+03)
 number of electron      18.0000000 magnetization       0.0008858
 augmentation part        0.5255231 magnetization      -0.0001230

 Broyden mixing:
  rms(total) = 0.10214E+01    rms(broyden)= 0.10183E+01
  rms(prec ) = 0.11076E+01
  weight for this iteration     100.00

 Free energy of the ion-electron system (eV)
  ---------------------------------------------------
  alpha Z        PSCENC =         0.53791023
  Ewald energy   TEWEN  =       405.63387493
  -Hartree energ DENC   =     -1345.00500684
  -exchange      EXHF   =         0.00000000
  -V(xc)+E(xc)   XCENC  =        69.07645470
  PAW double counting   =       732.84688384     -733.55728787
  entropy T*S    EENTRO =        -0.00000000
  eigenvalues    EBANDS =      -268.42522135
  atomic energy  EATOM  =      1141.34479484
  Solvation  Ediel_sol  =         0.00000000
  ---------------------------------------------------
  free energy    TOTEN  =         2.45240248 eV

  energy without entropy =        2.45240248  energy(sigma->0) =        2.45240248


--------------------------------------------------------------------------------------------------------




--------------------------------------- Iteration      2(   2)  ---------------------------------------


    POTLOK:  cpu time    0.5055: real time    0.5069
    SETDIJ:  cpu time    0.2654: real time    0.2660
     EDDAV:  cpu time    0.3959: real time    0.3969
       DOS:  cpu time    0.0001: real time    0.0001
    CHARGE:  cpu time    0.3130: real time    0.3137
    MIXING:  cpu time    0.0107: real time    0.0107
    --------------------------------------------
      LOOP:  cpu time    1.4906: real time    1.4943

 eigenvalue-minimisations  :    80
 total energy-change (2. order) :-0.9619182E+01  (-0.1082793E+02)
 number of electron      18.0000000 magnetization       0.0007900
 augmentation part        0.6131545 magnetization      -0.0002478

 Broyden mixing:
  rms(total) = 0.10417E+01    rms(broyden)= 0.10404E+01
  rms(prec ) = 0.12662E+01
  weight for this iteration     100.00

 eigenvalues of (default mixing * dielectric matrix)
  average eigenvalue GAMMA=   0.5028
  0.5028

 Free energy of the ion-electron system (eV)
  ---------------------------------------------------
  alpha Z        PSCENC =         0.53791023
  Ewald energy   TEWEN  =       405.63387493
  -Hartree energ DENC   =     -1334.07727365
  -exchange      EXHF   =         0.00000000
  -V(xc)+E(xc)   XCENC  =        68.52233319
  PAW double counting   =       744.47978587     -745.50331492
  entropy T*S    EENTRO =        -0.00000000
  eigenvalues    EBANDS =      -288.10488996
  atomic energy  EATOM  =      1141.34479484
  Solvation  Ediel_sol  =         0.00000000
  ---------------------------------------------------
  free energy    TOTEN  =        -7.16677947 eV

  energy without entropy =       -7.16677947  energy(sigma->0) =       -7.16677947


--------------------------------------------------------------------------------------------------------




--------------------------------------- Iteration      2(   3)  ---------------------------------------


    POTLOK:  cpu time    0.5055: real time    0.5068
    SETDIJ:  cpu time    0.2657: real time    0.2663
     EDDAV:  cpu time    0.4579: real time    0.4590
       DOS:  cpu time    0.0001: real time    0.0001
    CHARGE:  cpu time    0.3132: real time    0.3139
    MIXING:  cpu time    0.0113: real time    0.0114
    --------------------------------------------
      LOOP:  cpu time    1.5537: real time    1.5575

 eigenvalue-minimisations  :    96
 total energy-change (2. order) : 0.1443515E+01  (-0.3206213E+00)
 number of electron      18.0000000 magnetization       0.0006819
 augmentation part        0.3268275 magnetization      -0.0001475

 Broyden mixing:
  rms(total) = 0.75939E+00    rms(broyden)= 0.75702E+00
  rms(prec ) = 0.86216E+00
  weight for this iteration     100.00

 eigenvalues of (default mixing * dielectric matrix)
  average eigenvalue GAMMA=   0.4798
  0.6857  0.2740

 Free energy of the ion-electron system (eV)
  ---------------------------------------------------
  alpha Z        PSCENC =         0.53791023
  Ewald energy   TEWEN  =       405.63387493
  -Hartree energ DENC   =     -1342.93191109
  -exchange      EXHF   =         0.00000000
  -V(xc)+E(xc)   XCENC  =        69.12192787
  PAW double counting   =       765.76082135     -766.93911650
  entropy T*S    EENTRO =        -0.00000001
  eigenvalues    EBANDS =      -278.25156558
  atomic energy  EATOM  =      1141.34479484
  Solvation  Ediel_sol  =         0.00000000
  ---------------------------------------------------
  free energy    TOTEN  =        -5.72326397 eV

  energy without entropy =       -5.72326396  energy(sigma->0) =       -5.72326397


--------------------------------------------------------------------------------------------------------




--------------------------------------- Iteration      2(   4)  ---------------------------------------


    POTLOK:  cpu time    0.5054: real time    0.5114
    SETDIJ:  cpu time    0.2654: real time    0.2660
     EDDAV:  cpu time    0.3940: real time    0.3949
       DOS:  cpu time    0.0001: real time    0.0001
    CHARGE:  cpu time    0.3126: real time    0.3133
    MIXING:  cpu time    0.0115: real time    0.0115
    --------------------------------------------
      LOOP:  cpu time    1.4889: real time    1.4972

 eigenvalue-minimisations  :    80
 total energy-change (2. order) : 0.3679579E+00  (-0.4663653E-01)
 number of electron      18.0000000 magnetization       0.0003446
 augmentation part        0.4561852 magnetization      -0.0002551

 Broyden mixing:
  rms(total) = 0.45560E+00    rms(broyden)= 0.45464E+00
  rms(prec ) = 0.55021E+00
  weight for this iteration     100.00

 eigenvalues of (default mixing * dielectric matrix)
  average eigenvalue GAMMA=   1.0156
  1.8908  0.9014  0.2547

 Free energy of the ion-electron system (eV)
  ---------------------------------------------------
  alpha Z        PSCENC =         0.53791023
  Ewald energy   TEWEN  =       405.63387493
  -Hartree energ DENC   =     -1346.08791204
  -exchange      EXHF   =         0.00000000
  -V(xc)+E(xc)   XCENC  =        69.27656971
  PAW double counting   =       773.33519750     -774.58823751
  entropy T*S    EENTRO =        -0.00000000
  eigenvalues    EBANDS =      -274.80750376
  atomic energy  EATOM  =      1141.34479484
  Solvation  Ediel_sol  =         0.00000000
  ---------------------------------------------------
  free energy    TOTEN  =        -5.35530611 eV

  energy without entropy =       -5.35530611  energy(sigma->0) =       -5.35530611


--------------------------------------------------------------------------------------------------------




--------------------------------------- Iteration      2(   5)  ---------------------------------------


    POTLOK:  cpu time    0.5043: real time    0.5057
    SETDIJ:  cpu time    0.2655: real time    0.2662
     EDDAV:  cpu time    0.3938: real time    0.3948
       DOS:  cpu time    0.0001: real time    0.0001
    CHARGE:  cpu time    0.3133: real time    0.3141
    MIXING:  cpu time    0.0117: real time    0.0117
    --------------------------------------------
      LOOP:  cpu time    1.4889: real time    1.4926

 eigenvalue-minimisations  :    80
 total energy-change (2. order) : 0.1481165E+00  (-0.1510353E+00)
 number of electron      18.0000000 magnetization       0.0000205
 augmentation part        0.2685287 magnetization       0.0002455

 Broyden mixing:
  rms(total) = 0.59700E+00    rms(broyden)= 0.59582E+00
  rms(prec ) = 0.74348E+00
  weight for this iteration     100.00

 eigenvalues of (default mixing * dielectric matrix)
  average eigenvalue GAMMA=   1.0198
  1.9652  1.0227  0.8507  0.2406

 Free energy of the ion-electron system (eV)
  ---------------------------------------------------
  alpha Z        PSCENC =         0.53791023
  Ewald energy   TEWEN  =       405.63387493
  -Hartree energ DENC   =     -1355.14341156
  -exchange      EXHF   =         0.00000000
  -V(xc)+E(xc)   XCENC  =        69.80015202
  PAW double counting   =       796.96246711     -798.33121583
  entropy T*S    EENTRO =        -0.00229869
[...]
  augment    -4.93639    -4.71838    -4.39585     0.00591     0.34146     0.02048
  Kinetic   340.21507   342.43400   353.91882    10.49029    11.37286    -5.98015
  Fock        0.00000     0.00000     0.00000     0.00000     0.00000     0.00000
  -------------------------------------------------------------------------------------
  Total      -1.24881    -1.28219    -1.36606    -0.03562    -0.07367     0.02403
  in kB      -0.83662    -0.85899    -0.91517    -0.02386    -0.04935     0.01610
  external pressure =       -0.87 kB  Pullay stress =        0.00 kB


 VOLUME and BASIS-vectors are now :
 -----------------------------------------------------------------------------
  energy-cutoff  :      400.00
  volume of cell :     2391.54
      direct lattice vectors                 reciprocal lattice vectors
    13.675000191  0.000000000  0.000000000     0.073126142  0.042219398  0.000000000
    -6.837500095 11.842897562  0.000000000     0.000000000  0.084438795  0.000000000
     0.000000000  0.000000000 14.767000198     0.000000000  0.000000000  0.067718561

  length of vectors
    13.675000191 13.675000191 14.767000198     0.084438795  0.084438795  0.067718561


 FORCES acting on ions
    electron-ion (+dipol)            ewald-force                    non-local-force                 convergence-correction
 -----------------------------------------------------------------------------------------------
   -.160E+03 0.111E+03 -.185E+03   0.189E+03 -.127E+03 0.223E+03   -.288E+02 0.165E+02 -.379E+02   -.594E-03 -.298E-02 -.551E-02
   0.155E+03 -.218E+03 0.148E+02   -.182E+03 0.260E+03 -.121E+02   0.274E+02 -.421E+02 -.266E+01   0.812E-02 -.855E-02 0.552E-02
   0.663E+01 0.129E+03 0.205E+03   -.681E+01 -.133E+03 -.211E+03   0.177E+00 0.379E+01 0.597E+01   -.652E-03 0.155E-02 0.123E-02
 -----------------------------------------------------------------------------------------------
   0.114E+01 0.219E+02 0.346E+02   0.000E+00 -.284E-13 0.000E+00   -.114E+01 -.218E+02 -.346E+02   0.688E-02 -.998E-02 0.124E-02
 
 
 POSITION                                       TOTAL-FORCE (eV/Angst)
 -----------------------------------------------------------------------------------
      8.04595      5.89810     10.07677         0.009117     -0.002886      0.015338
      6.46081      7.55100      9.08164         0.001033     -0.002633     -0.003246
      7.23379      6.33316      8.96100        -0.010150      0.005519     -0.012092
 -----------------------------------------------------------------------------------
    total drift:                                0.000923      0.000411      0.003893


--------------------------------------------------------------------------------------------------------



  FREE ENERGIE OF THE ION-ELECTRON SYSTEM (eV)
  ---------------------------------------------------
  free  energy   TOTEN  =       -17.06277399 eV

  energy  without entropy=      -17.06277399  energy(sigma->0) =      -17.06277399
 
 d Force = 0.8338598E-03[-0.972E-04, 0.176E-02]  d Energy = 0.8049429E-03 0.289E-04
 d Force =-0.2001911E+01[-0.201E+01,-0.200E+01]  d Ewald  =-0.2001899E+01-0.120E-04


--------------------------------------------------------------------------------------------------------


    POTLOK:  cpu time    0.7846: real time    0.7865


--------------------------------------------------------------------------------------------------------


 stress matrix after NEB project (eV)
     -1.24881     -0.03562      0.02403
     -0.03562     -1.28219     -0.07367
      0.02403     -0.07367     -1.36606
  FORCES: max atom, RMS     0.018075    0.014433
  FORCE total and by dimension    0.024999    0.015338
  Stress total and by dimension    2.254817    1.366057
 Quasi-Newton relaxation of ions (Broydens 2nd method)
  g(Force)  = 0.301E-04   g(Stress)= 0.000E+00

 retain information from N=  2 steps
 eigenvalues of (default step * inverse Hessian matrix)
  average eigenvalue of G=   0.1777
 eigenvalue spectrum of G is  0.1777  0.1777


--------------------------------------------------------------------------------------------------------


    WAVPRE:  cpu time    0.0555: real time    0.0693
    FEWALD:  cpu time    0.0032: real time    0.0032

 real space projection operators:
  total allocation   :        803.94 KBytes
  max/ min on nodes  :        202.06        200.06

    ORTHCH:  cpu time    0.0374: real time    0.0375
     LOOP+:  cpu time   14.8010: real time   14.9253


--------------------------------------- Iteration     22(   1)  ---------------------------------------


    POTLOK:  cpu time    0.5087: real time    0.5213
    SETDIJ:  cpu time    0.2653: real time    0.2660
     EDDAV:  cpu time    0.3954: real time    0.3963
       DOS:  cpu time    0.0001: real time    0.0001
    CHARGE:  cpu time    0.3139: real time    0.3147
    MIXING:  cpu time    0.0107: real time    0.0107
    --------------------------------------------
      LOOP:  cpu time    1.4941: real time    1.5091

 eigenvalue-minimisations  :    80
 total energy-change (2. order) :-0.1680386E-04  (-0.6231117E-04)
 number of electron      18.0000000 magnetization      -0.0000000
 augmentation part        0.3903135 magnetization      -0.0000000

 Broyden mixing:
  rms(total) = 0.58101E-03    rms(broyden)= 0.57727E-03
  rms(prec ) = 0.73760E-03
  weight for this iteration     100.00

 Free energy of the ion-electron system (eV)
  ---------------------------------------------------
  alpha Z        PSCENC =         0.53791023
  Ewald energy   TEWEN  =       433.76857425
  -Hartree energ DENC   =     -1395.99032283
  -exchange      EXHF   =         0.00000000
  -V(xc)+E(xc)   XCENC  =        69.21501723
  PAW double counting   =       714.76843157     -715.32841634
  entropy T*S    EENTRO =        -0.00000000
  eigenvalues    EBANDS =      -265.37877354
  atomic energy  EATOM  =      1141.34479484
  Solvation  Ediel_sol  =         0.00000000
  ---------------------------------------------------
  free energy    TOTEN  =       -17.06278459 eV

  energy without entropy =      -17.06278459  energy(sigma->0) =      -17.06278459


--------------------------------------------------------------------------------------------------------




--------------------------------------- Iteration     22(   2)  ---------------------------------------


    POTLOK:  cpu time    0.5124: real time    0.5138
    SETDIJ:  cpu time    0.2649: real time    0.2656
     EDDAV:  cpu time    0.3952: real time    0.3962
       DOS:  cpu time    0.0001: real time    0.0001
    --------------------------------------------
      LOOP:  cpu time    1.1726: real time    1.1756

 eigenvalue-minimisations  :    80
 total energy-change (2. order) :-0.7515189E-05  (-0.1730063E-05)
 number of electron      18.0000000 magnetization      -0.0000000
 augmentation part        0.3903135 magnetization      -0.0000000

 Free energy of the ion-electron system (eV)
  ---------------------------------------------------
  alpha Z        PSCENC =         0.53791023
  Ewald energy   TEWEN  =       433.76857425
  -Hartree energ DENC   =     -1395.97884965
  -exchange      EXHF   =         0.00000000
  -V(xc)+E(xc)   XCENC  =        69.21455564
  PAW double counting   =       714.74605117     -715.30592072
  entropy T*S    EENTRO =        -0.00000000
  eigenvalues    EBANDS =      -265.38990786
  atomic energy  EATOM  =      1141.34479484
  Solvation  Ediel_sol  =         0.00000000
  ---------------------------------------------------
  free energy    TOTEN  =       -17.06279211 eV

  energy without entropy =      -17.06279211  energy(sigma->0) =      -17.06279211


--------------------------------------------------------------------------------------------------------




 average (electrostatic) potential at core
  the test charge radii are     0.7215  0.9698
  (the norm of the test charge is              1.0000)
       1 -81.9700       2 -81.9713       3-100.1475
 
 
 
 E-fermi :  -7.6643     XC(G=0):  -0.4254     alpha+bet : -0.1482


 spin component 1

 k-point     1 :       0.0000    0.0000    0.0000
  band No.  band energies     occupation 
      1     -28.7394      1.00000
      2     -26.3293      1.00000
      3     -15.7753      1.00000
      4     -12.2019      1.00000
      5     -11.9289      1.00000
      6     -11.9277      1.00000
      7      -9.2548      1.00000
      8      -8.5791      1.00000
      9      -7.9585      1.00000
     10      -4.4328      0.00000
     11      -0.5984      0.00000
     12      -0.0849      0.00000
     13       0.1887      0.00000
     14       0.4664      0.00000
     15       0.6154      0.00000
     16       0.8138      0.00000

 spin component 2

 k-point     1 :       0.0000    0.0000    0.0000
  band No.  band energies     occupation 
      1     -28.7394      1.00000
      2     -26.3293      1.00000
      3     -15.7753      1.00000
      4     -12.2019      1.00000
      5     -11.9289      1.00000
      6     -11.9277      1.00000
      7      -9.2548      1.00000
      8      -8.5791      1.00000
      9      -7.9585      1.00000
     10      -4.4328      0.00000
     11      -0.5984      0.00000
     12      -0.0849      0.00000
     13       0.1887      0.00000
     14       0.4664      0.00000
     15       0.6153      0.00000
     16       0.8137      0.00000


--------------------------------------------------------------------------------------------------------


 soft charge-density along one line, spin component           1
         0         1         2         3         4         5         6         7         8         9
 total charge-density along one line
 
 soft charge-density along one line, spin component           2
         0         1         2         3         4         5         6         7         8         9
 total charge-density along one line
 
 pseudopotential strength for first ion, spin component:           1
 13.995  -0.561  -0.040   0.093   0.070   0.002  -0.005  -0.004
 -0.561   0.127   0.005  -0.011  -0.008  -0.001   0.002   0.001
 -0.040   0.005 -10.742   0.059   0.002   0.352  -0.010   0.000
  0.093  -0.011   0.059 -10.803  -0.051  -0.010   0.361   0.007
  0.070  -0.008   0.002  -0.051 -10.804   0.000   0.007   0.363
  0.002  -0.001   0.352  -0.010   0.000   0.108   0.003  -0.000
 -0.005   0.002  -0.010   0.361   0.007   0.003   0.105  -0.002
 -0.004   0.001   0.000   0.007   0.363  -0.000  -0.002   0.105
 pseudopotential strength for first ion, spin component:           2
 13.995  -0.561  -0.040   0.093   0.070   0.002  -0.005  -0.004
 -0.561   0.127   0.005  -0.011  -0.008  -0.001   0.002   0.001
 -0.040   0.005 -10.742   0.059   0.002   0.352  -0.010   0.000
  0.093  -0.011   0.059 -10.803  -0.051  -0.010   0.361   0.007
  0.070  -0.008   0.002  -0.051 -10.804   0.000   0.007   0.363
  0.002  -0.001   0.352  -0.010   0.000   0.108   0.003  -0.000
 -0.005   0.002  -0.010   0.361   0.007   0.003   0.105  -0.002
 -0.004   0.001   0.000   0.007   0.363  -0.000  -0.002   0.105
 total augmentation occupancy for first ion, spin component:           1
  1.938   0.149  -0.048   0.092   0.075   0.016  -0.040  -0.030
  0.149   0.053   0.056  -0.123  -0.095   0.015  -0.041  -0.029
 -0.048   0.056   1.566   0.105  -0.081   0.142  -0.032  -0.023
  0.092  -0.123   0.105   1.599   0.032  -0.030   0.193   0.050
  0.075  -0.095  -0.081   0.032   1.445  -0.023   0.051   0.168
  0.016   0.015   0.142  -0.030  -0.023   0.017  -0.011  -0.007
 -0.040  -0.041  -0.032   0.193   0.051  -0.011   0.041   0.020
 -0.030  -0.029  -0.023   0.050   0.168  -0.007   0.020   0.029
 total augmentation occupancy for first ion, spin component:           2
 -0.000  -0.000  -0.000  -0.000  -0.000  -0.000  -0.000  -0.000
 -0.000  -0.000  -0.000  -0.000  -0.000  -0.000  -0.000   0.000
 -0.000  -0.000  -0.000  -0.000  -0.000   0.000   0.000   0.000
 -0.000  -0.000  -0.000  -0.000  -0.000   0.000   0.000  -0.000
 -0.000  -0.000  -0.000  -0.000  -0.000   0.000  -0.000   0.000
 -0.000  -0.000   0.000   0.000   0.000   0.000   0.000   0.000
 -0.000  -0.000   0.000   0.000  -0.000   0.000   0.000  -0.000
 -0.000   0.000   0.000  -0.000   0.000   0.000  -0.000   0.000


------------------------ aborting loop because EDIFF is reached ----------------------------------------


 


 total charge     
 
# of ion       s       p       d       tot
------------------------------------------
    1        1.637   3.469   0.000   5.106
    2        1.637   3.469   0.000   5.106
    3        1.376   2.216   0.000   3.592
--------------------------------------------------
tot          4.650   9.154   0.000  13.804
 


 magnetization (x)
 
# of ion       s       p       d       tot
------------------------------------------
    1       -0.000  -0.000   0.000  -0.000
    2        0.000   0.000   0.000   0.000
    3        0.000   0.000   0.000   0.000
--------------------------------------------------
tot          0.000   0.000   0.000   0.000
 
    CHARGE:  cpu time    0.3127: real time    0.3134
    FORLOC:  cpu time    0.0142: real time    0.0143
    FORNL :  cpu time    1.6894: real time    1.6961
    STRESS:  cpu time    5.3480: real time    5.3651
    FORCOR:  cpu time    0.4855: real time    0.4867
    FORHAR:  cpu time    0.0677: real time    0.0679
    MIXING:  cpu time    0.0104: real time    0.0104
    OFIELD:  cpu time    0.0000: real time    0.0000

  FORCE on cell =-STRESS in cart. coord.  units (eV):
  Direction    XX          YY          ZZ          XY          YZ          ZX
  --------------------------------------------------------------------------------------
  Alpha Z     0.53791     0.53791     0.53791
  Ewald     160.79594   239.31915    33.65342  -307.69938  -110.17263   188.58349
  Hartree   490.02958   528.13377   377.80642  -163.68330   -63.63004    98.59532
  E(xc)     -81.17859   -80.98123   -81.15823    -0.59174    -0.14293     0.37274
  Local    -929.41514 -1048.94164  -704.71621   461.80664   162.07386  -281.81306
  n-local    22.70393    22.93296    22.98914    -0.36066     0.08351     0.24282
  augment    -4.93869    -4.72035    -4.39812     0.00582     0.34166     0.02040
  Kinetic   340.19658   342.41881   353.89968    10.48821    11.37487    -5.98027
  Fock        0.00000     0.00000     0.00000     0.00000     0.00000     0.00000
  -------------------------------------------------------------------------------------
  Total      -1.26848    -1.30063    -1.38599    -0.03441    -0.07169     0.02143
  in kB      -0.84980    -0.87134    -0.92852    -0.02305    -0.04803     0.01436
  external pressure =       -0.88 kB  Pullay stress =        0.00 kB


 VOLUME and BASIS-vectors are now :
 -----------------------------------------------------------------------------
  energy-cutoff  :      400.00
  volume of cell :     2391.54
      direct lattice vectors                 reciprocal lattice vectors
    13.675000191  0.000000000  0.000000000     0.073126142  0.042219398  0.000000000
    -6.837500095 11.842897562  0.000000000     0.000000000  0.084438795  0.000000000
     0.000000000  0.000000000 14.767000198     0.000000000  0.000000000  0.067718561

  length of vectors
    13.675000191 13.675000191 14.767000198     0.084438795  0.084438795  0.067718561


 FORCES acting on ions
    electron-ion (+dipol)            ewald-force                    non-local-force                 convergence-correction
 -----------------------------------------------------------------------------------------------
   -.160E+03 0.111E+03 -.185E+03   0.189E+03 -.127E+03 0.223E+03   -.287E+02 0.165E+02 -.379E+02   -.817E-02 0.165E-02 -.151E-01
   0.155E+03 -.218E+03 0.148E+02   -.182E+03 0.260E+03 -.122E+02   0.274E+02 -.421E+02 -.265E+01   0.904E-02 -.836E-02 0.104E-01
   0.655E+01 0.129E+03 0.205E+03   -.674E+01 -.133E+03 -.211E+03   0.186E+00 0.379E+01 0.598E+01   0.846E-02 -.606E-02 0.944E-02
 -----------------------------------------------------------------------------------------------
   0.111E+01 0.219E+02 0.346E+02   0.000E+00 -.284E-13 -.284E-13   -.112E+01 -.219E+02 -.346E+02   0.933E-02 -.128E-01 0.475E-02
 
 
 POSITION                                       TOTAL-FORCE (eV/Angst)
 -----------------------------------------------------------------------------------
      8.04605      5.89812     10.07701         0.001965     -0.001333      0.002009
      6.46077      7.55098      9.08147         0.000130      0.000828     -0.000089
      7.23373      6.33316      8.96094        -0.002095      0.000505     -0.001921
 -----------------------------------------------------------------------------------
    total drift:                                0.001016     -0.001560      0.000942


--------------------------------------------------------------------------------------------------------



  FREE ENERGIE OF THE ION-ELECTRON SYSTEM (eV)
  ---------------------------------------------------
  free  energy   TOTEN  =       -17.06279211 eV

  energy  without entropy=      -17.06279211  energy(sigma->0) =      -17.06279211
 
 d Force = 0.3661763E-05[ 0.887E-06, 0.644E-05]  d Energy = 0.1811658E-04-0.145E-04
 d Force = 0.8753489E-01[ 0.875E-01, 0.875E-01]  d Ewald  = 0.8753489E-01 0.116E-08


--------------------------------------------------------------------------------------------------------


    POTLOK:  cpu time    0.7816: real time    0.7836


--------------------------------------------------------------------------------------------------------


 stress matrix after NEB project (eV)
     -1.26848     -0.03441      0.02143
     -0.03441     -1.30063     -0.07169
      0.02143     -0.07169     -1.38599
  FORCES: max atom, RMS     0.003111    0.002498
  FORCE total and by dimension    0.004327    0.002095
  Stress total and by dimension    2.288060    1.385991
 Quasi-Newton relaxation of ions (Broydens 2nd method)
  g(Force)  = 0.903E-06   g(Stress)= 0.000E+00

 retain information from N=  1 steps
 eigenvalues of (default step * inverse Hessian matrix)
  average eigenvalue of G=   0.2718
 eigenvalue spectrum of G is  0.2718


--------------------------------------------------------------------------------------------------------


  
 reached required accuracy - stopping structural energy minimisation
     LOOP+:  cpu time   11.6516: real time   11.7299
    4ORBIT:  cpu time    0.0000: real time    0.0000
 


 total charge     
 
# of ion       s       p       d       tot
------------------------------------------
    1        1.637   3.469   0.000   5.106
    2        1.637   3.469   0.000   5.106
    3        1.376   2.216   0.000   3.592
--------------------------------------------------
tot          4.650   9.154   0.000  13.804
 


 magnetization (x)
 
# of ion       s       p       d       tot
------------------------------------------
    1       -0.000  -0.000   0.000  -0.000
    2        0.000   0.000   0.000   0.000
    3        0.000   0.000   0.000   0.000
--------------------------------------------------
tot          0.000   0.000   0.000   0.000
 

 total amount of memory used by VASP MPI-rank0   145292. kBytes
=======================================================================

   base      :      30000. kBytes
   nonlr-proj:        485. kBytes
   fftplans  :      63994. kBytes
   grid      :      49417. kBytes
   one-center:          6. kBytes
   wavefun   :       1390. kBytes
 
  
  
 General timing and accounting informations for this job:
 ========================================================
  
                  Total CPU time used (sec):      728.990
                            User time (sec):      690.524
                          System time (sec):       38.467
                         Elapsed time (sec):      735.850
  
                   Maximum memory used (kb):      258820.
                   Average memory used (kb):           0.
  
                          Minor page faults:       156758
                          Major page faults:            4
                 Voluntary context switches:         1523
