 vasp.5.4.4.18Apr17-6-g9f103f2a35 (build Dec 31 2018 11:41:54) complex          
  
 executed on             LinuxIFC date 2022.06.28  11:49:31
 running on   16 total cores
 distrk:  each k-point on   16 cores,    1 groups
 distr:  one band on NCORES_PER_BAND=   4 cores,    4 groups


--------------------------------------------------------------------------------------------------------


 INCAR:
 POTCAR:   PAW_PBE O 08Apr2002                    
 POTCAR:   PAW_PBE Si 05Jan2001                   
 POTCAR:   PAW_PBE Al 04Jan2001                   
 POTCAR:   PAW_PBE Ag 06Sep2000                   
 POTCAR:    PAW_PBE S 17Jan2003                   
 POTCAR:   PAW_PBE C 08Apr2002                    
 POTCAR:   PAW_PBE O 08Apr2002                    
   VRHFIN =O: s2p4                                                              
   LEXCH  = PE                                                                  
   EATOM  =   432.3788 eV,   31.7789 Ry                                         
                                                                                
   TITEL  = PAW_PBE O 08Apr2002                                                 
   LULTRA =        F    use ultrasoft PP ?                                      
   IUNSCR =        0    unscreen: 0-lin 1-nonlin 2-no                           
   RPACOR =     .000    partial core radius                                     
   POMASS =   16.000; ZVAL   =    6.000    mass and valenz                      
   RCORE  =    1.520    outmost cutoff radius                                   
   RWIGS  =    1.550; RWIGS  =     .820    wigner-seitz radius (au A)           
   ENMAX  =  400.000; ENMIN  =  300.000 eV                                      
   ICORE  =        2    local potential                                         
   LCOR   =        T    correct aug charges                                     
   LPAW   =        T    paw PP                                                  
   EAUG   =  605.392                                                            
   DEXC   =     .000                                                            
   RMAX   =    2.264    core radius for proj-oper                               
   RAUG   =    1.300    factor for augmentation sphere                          
   RDEP   =    1.550    radius for radial grids                                 
   QCUT   =   -5.520; QGAM   =   11.041    optimization parameters              
                                                                                
   Description                                                                  
     l     E      TYP  RCUT    TYP  RCUT                                        
     0   .000     23  1.200                                                     
     0  -.700     23  1.200                                                     
     1   .000     23  1.520                                                     
     1   .600     23  1.520                                                     
     2   .000      7  1.500                                                     
  local pseudopotential read in
  atomic valenz-charges read in
  non local Contribution for L=           0  read in
    real space projection operators read in
  non local Contribution for L=           0  read in
    real space projection operators read in
  non local Contribution for L=           1  read in
    real space projection operators read in
  non local Contribution for L=           1  read in
    real space projection operators read in
    PAW grid and wavefunctions read in
 
   number of l-projection  operators is LMAX  =           4
   number of lm-projection operators is LMMAX =           8
 
 POTCAR:   PAW_PBE Si 05Jan2001                   
   VRHFIN =Si: s2p2                                                             
   LEXCH  = PE                                                                  
   EATOM  =   103.0669 eV,    7.5752 Ry                                         
                                                                                
   TITEL  = PAW_PBE Si 05Jan2001                                                
   LULTRA =        F    use ultrasoft PP ?                                      
   IUNSCR =        1    unscreen: 0-lin 1-nonlin 2-no                           
   RPACOR =    1.500    partial core radius                                     
   POMASS =   28.085; ZVAL   =    4.000    mass and valenz                      
   RCORE  =    1.900    outmost cutoff radius                                   
   RWIGS  =    2.480; RWIGS  =    1.312    wigner-seitz radius (au A)           
   ENMAX  =  245.345; ENMIN  =  184.009 eV                                      
   ICORE  =        2    local potential                                         
   LCOR   =        T    correct aug charges                                     
   LPAW   =        T    paw PP                                                  
   EAUG   =  322.069                                                            
   DEXC   =    -.007                                                            
   RMAX   =    2.944    core radius for proj-oper                               
   RAUG   =    1.300    factor for augmentation sphere                          
   RDEP   =    1.993    radius for radial grids                                 
   QCUT   =   -4.246; QGAM   =    8.493    optimization parameters              
                                                                                
   Description                                                                  
     l     E      TYP  RCUT    TYP  RCUT                                        
     0   .000     23  1.900                                                     
     0   .000     23  1.900                                                     
     1   .000     23  1.900                                                     
     1   .000     23  1.900                                                     
     2   .000      7  1.900                                                     
  local pseudopotential read in
  partial core-charges read in
  atomic valenz-charges read in
  non local Contribution for L=           0  read in
    real space projection operators read in
  non local Contribution for L=           0  read in
    real space projection operators read in
  non local Contribution for L=           1  read in
    real space projection operators read in
  non local Contribution for L=           1  read in
    real space projection operators read in
    PAW grid and wavefunctions read in
 
   number of l-projection  operators is LMAX  =           4
   number of lm-projection operators is LMMAX =           8
 
 POTCAR:   PAW_PBE Al 04Jan2001                   
   VRHFIN =Al: s2p1                                                             
   LEXCH  = PE                                                                  
   EATOM  =    53.5387 eV,    3.9350 Ry                                         
                                                                                
   TITEL  = PAW_PBE Al 04Jan2001                                                
   LULTRA =        F    use ultrasoft PP ?                                      
   IUNSCR =        1    unscreen: 0-lin 1-nonlin 2-no                           
   RPACOR =    1.500    partial core radius                                     
   POMASS =   26.982; ZVAL   =    3.000    mass and valenz                      
   RCORE  =    1.900    outmost cutoff radius                                   
   RWIGS  =    2.650; RWIGS  =    1.402    wigner-seitz radius (au A)           
   ENMAX  =  240.300; ENMIN  =  180.225 eV                                      
   ICORE  =        2    local potential                                         
   LCOR   =        T    correct aug charges                                     
   LPAW   =        T    paw PP                                                  
   EAUG   =  291.052                                                            
   DEXC   =    -.041                                                            
   RMAX   =    2.974    core radius for proj-oper                               
   RAUG   =    1.300    factor for augmentation sphere                          
   RDEP   =    1.966    radius for radial grids                                 
   QCUT   =   -4.203; QGAM   =    8.405    optimization parameters              
                                                                                
   Description                                                                  
     l     E      TYP  RCUT    TYP  RCUT                                        
     0   .000     23  1.900                                                     
     0   .000     23  1.900                                                     
     1   .000     23  1.900                                                     
     1  1.000     23  1.900                                                     
     2   .000      7  1.900                                                     
  local pseudopotential read in
  partial core-charges read in
  atomic valenz-charges read in
  non local Contribution for L=           0  read in
    real space projection operators read in
  non local Contribution for L=           0  read in
    real space projection operators read in
  non local Contribution for L=           1  read in
    real space projection operators read in
  non local Contribution for L=           1  read in
    real space projection operators read in
    PAW grid and wavefunctions read in
 
   number of l-projection  operators is LMAX  =           4
   number of lm-projection operators is LMMAX =           8
 
 POTCAR:   PAW_PBE Ag 06Sep2000                   
   VRHFIN =Ag : s1 d10                                                          
   LEXCH  = PE                                                                  
   EATOM  =  1037.4134 eV,   76.2477 Ry                                         
                                                                                
   TITEL  = PAW_PBE Ag 06Sep2000                                                
   LULTRA =        F    use ultrasoft PP ?                                      
   IUNSCR =        1    unscreen: 0-lin 1-nonlin 2-no                           
   RPACOR =    2.000    partial core radius                                     
   POMASS =  107.868; ZVAL   =   11.000    mass and valenz                      
   RCORE  =    2.400    outmost cutoff radius                                   
   RWIGS  =    2.840; RWIGS  =    1.503    wigner-seitz radius (au A)           
   ENMAX  =  249.846; ENMIN  =  187.385 eV                                      
   RCLOC  =    1.962    cutoff for local pot                                    
   LCOR   =        T    correct aug charges                                     
   LPAW   =        T    paw PP                                                  
   EAUG   =  412.496                                                            
   DEXC   =    -.047                                                            
   RMAX   =    2.917    core radius for proj-oper                               
   RAUG   =    1.300    factor for augmentation sphere                          
   RDEP   =    2.416    radius for radial grids                                 
   QCUT   =   -4.285; QGAM   =    8.570    optimization parameters              
                                                                                
   Description                                                                  
     l     E      TYP  RCUT    TYP  RCUT                                        
     2   .000     23  2.400                                                     
     2   .000     23  2.400                                                     
     0   .000     23  2.400                                                     
     0   .000     23  2.400                                                     
     1  -.200     23  2.400                                                     
     1  1.500     23  2.400                                                     
     3   .000      7   .000                                                     
  local pseudopotential read in
  partial core-charges read in
  atomic valenz-charges read in
  non local Contribution for L=           2  read in
    real space projection operators read in
  non local Contribution for L=           2  read in
    real space projection operators read in
  non local Contribution for L=           0  read in
    real space projection operators read in
  non local Contribution for L=           0  read in
    real space projection operators read in
  non local Contribution for L=           1  read in
    real space projection operators read in
  non local Contribution for L=           1  read in
    real space projection operators read in
    PAW grid and wavefunctions read in
 
   number of l-projection  operators is LMAX  =           6
   number of lm-projection operators is LMMAX =          18
 
 POTCAR:    PAW_PBE S 17Jan2003                   
   VRHFIN =S : s2p4                                                             
   LEXCH  = PE                                                                  
   EATOM  =   276.8230 eV,   20.3459 Ry                                         
                                                                                
   TITEL  = PAW_PBE S 17Jan2003                                                 
   LULTRA =        F    use ultrasoft PP ?                                      
   IUNSCR =        1    unscreen: 0-lin 1-nonlin 2-no                           
   RPACOR =    1.500    partial core radius                                     
   POMASS =   32.066; ZVAL   =    6.000    mass and valenz                      
   RCORE  =    1.900    outmost cutoff radius                                   
   RWIGS  =    2.200; RWIGS  =    1.164    wigner-seitz radius (au A)           
   ENMAX  =  280.000; ENMIN  =  194.016 eV                                      
   ICORE  =        2    local potential                                         
   LCOR   =        T    correct aug charges                                     
   LPAW   =        T    paw PP                                                  
   EAUG   =  335.092                                                            
   DEXC   =     .000                                                            
   RMAX   =    2.867    core radius for proj-oper                               
   RAUG   =    1.300    factor for augmentation sphere                          
   RDEP   =    1.954    radius for radial grids                                 
   QCUT   =   -4.360; QGAM   =    8.721    optimization parameters              
                                                                                
   Description                                                                  
     l     E      TYP  RCUT    TYP  RCUT                                        
     0   .000     23  1.900                                                     
     0   .000     23  1.900                                                     
     1   .000     23  1.900                                                     
     1   .000     23  1.900                                                     
     2   .000     23  1.900                                                     
  local pseudopotential read in
  partial core-charges read in
  atomic valenz-charges read in
  non local Contribution for L=           0  read in
    real space projection operators read in
  non local Contribution for L=           0  read in
    real space projection operators read in
  non local Contribution for L=           1  read in
    real space projection operators read in
  non local Contribution for L=           1  read in
    real space projection operators read in
    PAW grid and wavefunctions read in
 
   number of l-projection  operators is LMAX  =           4
   number of lm-projection operators is LMMAX =           8
 
 POTCAR:   PAW_PBE C 08Apr2002                    
   VRHFIN =C: s2p2                                                              
   LEXCH  = PE                                                                  
   EATOM  =   147.1560 eV,   10.8157 Ry                                         
                                                                                
   TITEL  = PAW_PBE C 08Apr2002                                                 
   LULTRA =        F    use ultrasoft PP ?                                      
   IUNSCR =        0    unscreen: 0-lin 1-nonlin 2-no                           
   RPACOR =     .000    partial core radius                                     
   POMASS =   12.011; ZVAL   =    4.000    mass and valenz                      
   RCORE  =    1.500    outmost cutoff radius                                   
   RWIGS  =    1.630; RWIGS  =     .863    wigner-seitz radius (au A)           
   ENMAX  =  400.000; ENMIN  =  300.000 eV                                      
   ICORE  =        2    local potential                                         
   LCOR   =        T    correct aug charges                                     
   LPAW   =        T    paw PP                                                  
   EAUG   =  644.873                                                            
   DEXC   =     .000                                                            
   RMAX   =    2.266    core radius for proj-oper                               
   RAUG   =    1.300    factor for augmentation sphere                          
   RDEP   =    1.501    radius for radial grids                                 
   RDEPT  =    1.300    core radius for aug-charge                              
   QCUT   =   -5.516; QGAM   =   11.032    optimization parameters              
                                                                                
   Description                                                                  
     l     E      TYP  RCUT    TYP  RCUT                                        
     0   .000     23  1.200                                                     
     0   .000     23  1.200                                                     
     1   .000     23  1.500                                                     
     1  2.500     23  1.500                                                     
     2   .000      7  1.500                                                     
  local pseudopotential read in
  atomic valenz-charges read in
  non local Contribution for L=           0  read in
    real space projection operators read in
  non local Contribution for L=           0  read in
    real space projection operators read in
  non local Contribution for L=           1  read in
    real space projection operators read in
  non local Contribution for L=           1  read in
    real space projection operators read in
    PAW grid and wavefunctions read in
 
   number of l-projection  operators is LMAX  =           4
   number of lm-projection operators is LMMAX =           8
 
 Optimization of the real space projectors (new method)

 maximal supplied QI-value         = 24.76
 optimisation between [QCUT,QGAM] = [ 10.15, 20.30] = [ 28.85,115.39] Ry 
 Optimized for a Real-space Cutoff    1.51 Angstroem

   l    n(q)    QCUT    max X(q) W(low)/X(q) W(high)/X(q)  e(spline) 
   0      9    10.150     4.192    0.32E-04    0.13E-04    0.13E-06
   0      9    10.150     8.473    0.18E-03    0.20E-03    0.43E-06
   1      9    10.150     2.474    0.32E-04    0.33E-04    0.64E-07
   1      9    10.150     3.912    0.13E-03    0.16E-03    0.33E-06
 Optimization of the real space projectors (new method)

 maximal supplied QI-value         = 19.84
 optimisation between [QCUT,QGAM] = [ 10.12, 20.44] = [ 28.68,116.96] Ry 
 Optimized for a Real-space Cutoff    1.38 Angstroem

   l    n(q)    QCUT    max X(q) W(low)/X(q) W(high)/X(q)  e(spline) 
   0      8    10.119     8.708    0.16E-04    0.67E-05    0.60E-08
   0      8    10.119   106.241    0.56E-04    0.11E-03    0.54E-07
   1      8    10.119     5.901    0.16E-04    0.16E-05    0.22E-07
   1      8    10.119    73.241    0.22E-03    0.17E-03    0.18E-06
 Optimization of the real space projectors (new method)

 maximal supplied QI-value         = 19.84
 optimisation between [QCUT,QGAM] = [ 10.12, 20.44] = [ 28.68,116.96] Ry 
 Optimized for a Real-space Cutoff    1.26 Angstroem

   l    n(q)    QCUT    max X(q) W(low)/X(q) W(high)/X(q)  e(spline) 
   0      8    10.119    13.410    0.28E-04    0.17E-04    0.51E-08
   0      8    10.119   140.052    0.10E-03    0.16E-03    0.42E-07
   1      7    10.119     9.624    0.38E-04    0.42E-05    0.15E-07
   1      7    10.119    53.353    0.23E-03    0.17E-03    0.13E-06
 Optimization of the real space projectors (new method)

 maximal supplied QI-value         = 15.68
 optimisation between [QCUT,QGAM] = [ 10.20, 20.39] = [ 29.11,116.42] Ry 
 Optimized for a Real-space Cutoff    1.51 Angstroem

   l    n(q)    QCUT    max X(q) W(low)/X(q) W(high)/X(q)  e(spline) 
   2      8    10.195     3.831    0.11E-04    0.20E-04    0.48E-07
   2      8    10.195    20.184    0.23E-03    0.42E-03    0.20E-06
   0      9    10.195    16.770    0.13E-04    0.90E-05    0.63E-08
   0      9    10.195    80.708    0.19E-03    0.15E-03    0.44E-07
   1      9    10.195     6.696    0.12E-04    0.45E-04    0.30E-07
   1      9    10.195     8.973    0.12E-03    0.15E-03    0.13E-06
 Optimization of the real space projectors (new method)

 maximal supplied QI-value         = 19.84
 optimisation between [QCUT,QGAM] = [ 10.12, 20.44] = [ 28.68,116.96] Ry 
 Optimized for a Real-space Cutoff    1.42 Angstroem

   l    n(q)    QCUT    max X(q) W(low)/X(q) W(high)/X(q)  e(spline) 
   0      9    10.119     5.487    0.15E-04    0.47E-05    0.66E-08
   0      9    10.119    85.627    0.51E-04    0.92E-04    0.63E-07
   1      8    10.119     3.530    0.37E-05    0.76E-05    0.28E-07
   1      8    10.119    42.714    0.16E-03    0.16E-03    0.23E-06
 Optimization of the real space projectors (new method)

 maximal supplied QI-value         = 25.13
 optimisation between [QCUT,QGAM] = [ 10.05, 20.36] = [ 28.30,116.06] Ry 
 Optimized for a Real-space Cutoff    1.38 Angstroem

   l    n(q)    QCUT    max X(q) W(low)/X(q) W(high)/X(q)  e(spline) 
   0      8    10.053     5.582    0.33E-04    0.15E-04    0.75E-07
   0      8    10.053    69.432    0.23E-03    0.38E-03    0.25E-06
   1      8    10.053     2.780    0.76E-04    0.11E-03    0.15E-06
   1      8    10.053     4.549    0.19E-03    0.19E-03    0.27E-06
 PAW_PBE O 08Apr2002                    :
 energy of atom  1       EATOM= -432.3788
 kinetic energy error for atom=    0.1156 (will be added to EATOM!!)
 PAW_PBE Si 05Jan2001                   :
 energy of atom  2       EATOM= -103.0669
 kinetic energy error for atom=    0.0012 (will be added to EATOM!!)
 PAW_PBE Al 04Jan2001                   :
 energy of atom  3       EATOM=  -53.5387
 kinetic energy error for atom=    0.0005 (will be added to EATOM!!)
 PAW_PBE Ag 06Sep2000                   :
 energy of atom  4       EATOM=-1037.4134
 kinetic energy error for atom=    0.0091 (will be added to EATOM!!)
  PAW_PBE S 17Jan2003                   :
 energy of atom  5       EATOM= -276.8230
 kinetic energy error for atom=    0.0046 (will be added to EATOM!!)
 PAW_PBE C 08Apr2002                    :
 energy of atom  6       EATOM= -147.1560
 kinetic energy error for atom=    0.0288 (will be added to EATOM!!)
 
 
 POSCAR: O  C                                    
  positions in direct lattice
  velocities in cartesian coordinates
 exchange correlation table for  LEXCH =        8
   RHO(1)=    0.500       N(1)  =     2000
   RHO(2)=  100.500       N(2)  =     4000

 VTST: version 3.2, (02/03/18)

 CHAIN: initializing optimizer
 
 OPT: Using VASP Dynamics algorithm
 CHAIN: Read ICHAIN            0
 
 POSCAR: O  C                                    
  positions in direct lattice
  velocities in cartesian coordinates
 


--------------------------------------------------------------------------------------------------------


 ion  position               nearest neighbor table
   1  0.899  0.098  0.118-  74 1.63  81 1.63
   2  0.105  0.888  0.879-  80 1.63  75 1.63
   3  0.894  0.794  0.129-  84 1.61  76 1.64
   4  0.097  0.197  0.865-  77 1.63  83 1.63
   5  0.197  0.104  0.115-  78 1.62  82 1.63
   6  0.805  0.904  0.880-  79 1.59 107 1.73
   7  0.556  0.427  0.456-  85 1.62  91 1.63
   8  0.764  0.234  0.217-  90 1.59 108 1.73
   9  0.567  0.142  0.470-  95 1.64  86 1.65
  10  0.768  0.540  0.206-  94 1.63  87 1.63
  11  0.864  0.426  0.461-  93 1.62  88 1.64
  12  0.466  0.236  0.182-  89 1.63  92 1.64
  13  0.234  0.775  0.775- 103 1.61  96 1.64
  14  0.425  0.570  0.524-  97 1.66 102 1.67 111 2.55
  15  0.232  0.447  0.771-  98 1.62 106 1.62
  16  0.429  0.852  0.529-  99 1.63 109 1.79 111 2.27
  17  0.530  0.755  0.803- 100 1.63 105 1.64
  18  0.125  0.560  0.533- 104 1.65 101 1.68 111 2.44
  19  0.978  0.316  0.160-  74 1.61  90 1.63
  20  0.025  0.669  0.843- 103 1.62  75 1.63
  21  0.678  0.673  0.172-  94 1.61  76 1.63
  22  0.315  0.316  0.817- 106 1.62  77 1.63
  23  0.319  0.015  0.177-  78 1.61  92 1.63
  24  0.666  0.979  0.826- 105 1.62  79 1.63
  25  0.325  0.986  0.837-  80 1.61  96 1.63
  26  0.678  0.004  0.161-  81 1.60 108 1.74 110 2.53
  27  0.671  0.673  0.813- 100 1.61 107 1.76 112 2.43
  28  0.333  0.323  0.157-  82 1.62  89 1.62
  29  0.018  0.337  0.832-  98 1.61  83 1.62
  30  0.989  0.670  0.172-  87 1.62  84 1.62
  31  0.647  0.641  0.503- 102 1.61  85 1.62
  32  0.343  0.994  0.475-  86 1.59 109 1.71
  33  0.996  0.339  0.497- 104 1.61  88 1.63
  34  0.337  0.351  0.480-  97 1.61  91 1.63
  35  0.986  0.642  0.505- 101 1.62  93 1.62
  36  0.650  0.008  0.514-  99 1.61  95 1.64
  37  0.119  0.243  0.129-  82 1.61  74 1.62
  38  0.886  0.745  0.853-  75 1.62 107 1.78 112 2.30
  39  0.762  0.878  0.111-  81 1.60  76 1.61
  40  0.229  0.108  0.870-  77 1.61  80 1.62
  41  0.113  0.883  0.128-  78 1.61  84 1.61
  42  0.877  0.122  0.859-  83 1.61  79 1.63
  43  0.775  0.557  0.467-  85 1.61  93 1.62
  44  0.536  0.086  0.174-  92 1.62 108 1.79 110 2.32
  45  0.417  0.211  0.467-  91 1.60  86 1.64
  46  0.903  0.453  0.196-  87 1.61  90 1.63
  47  0.785  0.207  0.453-  88 1.60  95 1.63
  48  0.548  0.456  0.194-  89 1.61  94 1.62
  49  0.450  0.896  0.807- 105 1.62  96 1.64
  50  0.210  0.428  0.541-  97 1.62 104 1.62
  51  0.124  0.555  0.801-  98 1.61 103 1.62
  52  0.579  0.788  0.519- 102 1.61  99 1.64
  53  0.450  0.534  0.800- 106 1.62 100 1.63
  54  0.202  0.777  0.544- 101 1.58 109 1.74
  55  0.999  0.258  0.994-  83 1.62  74 1.63
  56  0.991  0.730  0.003-  75 1.62  84 1.63
  57  0.736  0.714  0.999-  76 1.60 107 1.72
  58  0.257  0.267  0.991-  77 1.63  82 1.63
  59  0.268  0.999  0.003-  80 1.63  78 1.64
  60  0.661  0.589  0.333-  85 1.61  94 1.63
  61  0.633  0.050  0.341-  95 1.60 108 1.72
  62  0.441  0.108  0.324-  92 1.61  86 1.63
  63  0.921  0.587  0.335-  93 1.62  87 1.63
  64  0.939  0.345  0.329-  88 1.62  90 1.64
  65  0.407  0.323  0.321-  91 1.62  89 1.63
  66  0.360  0.950  0.666-  96 1.59 109 1.74
  67  0.355  0.409  0.653-  97 1.62 106 1.64
  68  0.058  0.406  0.665- 104 1.62  98 1.63
  69  0.575  0.897  0.666- 105 1.61  99 1.62
  70  0.568  0.659  0.660- 102 1.61 100 1.63
  71  0.055  0.640  0.671- 101 1.64 103 1.64
  72  0.733  0.011  0.993-  79 1.66  81 1.67 110 2.50
  73  0.754  0.282  0.761- 114 1.17
  74  0.997  0.228  0.101-  19 1.61  37 1.62  55 1.63   1 1.63  90 3.10  82 3.10  81 3.13  83 3.14

  75  0.002  0.760  0.896-  56 1.62  38 1.62   2 1.63  20 1.63 103 3.06  84 3.13 107 3.16 112 3.37

  76  0.767  0.763  0.099-  57 1.60  39 1.61  21 1.63   3 1.64  94 3.00 107 3.09  84 3.09
  77  0.224  0.222  0.887-  40 1.61  58 1.63   4 1.63  22 1.63 106 3.06  82 3.11  83 3.13
  78  0.224  0.001  0.106-  41 1.61  23 1.61   5 1.62  59 1.64  92 3.04  80 3.08
  79  0.772  0.000  0.888-   6 1.59  42 1.63  24 1.63  72 1.66 105 3.08  83 3.09  81 3.10 107 3.23

  80  0.231  0.995  0.898-  25 1.61  40 1.62   2 1.63  59 1.63  96 3.07  78 3.08
  81  0.770  0.998  0.098-  26 1.60  39 1.60   1 1.63  72 1.67  79 3.10  74 3.13 110 3.16 108 3.17

  82  0.227  0.234  0.097-  37 1.61  28 1.62   5 1.63  58 1.63  89 3.05  74 3.10  77 3.11
  83  0.998  0.227  0.889-  42 1.61  55 1.62  29 1.62   4 1.63  98 3.06  79 3.09  77 3.13  74 3.14

  84  0.996  0.769  0.107-  41 1.61   3 1.61  30 1.62  56 1.63  87 3.03  76 3.09  75 3.13
  85  0.660  0.553  0.437-  60 1.61  43 1.61   7 1.62  31 1.62 102 3.07  93 3.12  94 3.13  91 3.13

  86  0.441  0.110  0.435-  32 1.59  62 1.63  45 1.64   9 1.65  95 3.03  91 3.04 109 3.07
  87  0.894  0.561  0.227-  46 1.61  30 1.62  63 1.63  10 1.63  84 3.03  90 3.10  93 3.14
  88  0.893  0.327  0.433-  47 1.60  64 1.62  33 1.63  11 1.64 104 3.03  90 3.07  93 3.12
  89  0.439  0.334  0.214-  48 1.61  28 1.62  65 1.63  12 1.63  82 3.05  92 3.06  94 3.12
  90  0.892  0.333  0.225-   8 1.59  19 1.63  46 1.63  64 1.64  88 3.07  74 3.10  87 3.10 108 3.23

  91  0.429  0.327  0.429-  45 1.60  65 1.62   7 1.63  34 1.63  86 3.04  97 3.05  85 3.13
  92  0.441  0.111  0.216-  62 1.61  44 1.62  23 1.63  12 1.64  78 3.04  89 3.06 108 3.07
  93  0.887  0.552  0.440-  63 1.62  43 1.62  35 1.62  11 1.62 101 3.06  88 3.12  85 3.12  87 3.14

  94  0.665  0.564  0.226-  21 1.61  48 1.62  10 1.63  60 1.63  76 3.00  89 3.12  85 3.13
  95  0.657  0.101  0.441-  61 1.60  47 1.63  36 1.64   9 1.64  86 3.03  99 3.04 108 3.12
  96  0.342  0.903  0.767-  66 1.59  25 1.63  13 1.64  49 1.64  80 3.07 105 3.08 109 3.12
  97  0.332  0.437  0.551-  34 1.61  50 1.62  67 1.62  14 1.66  91 3.05 102 3.10 106 3.10
  98  0.108  0.436  0.767-  29 1.61  51 1.61  15 1.62  68 1.63  83 3.06 104 3.07 103 3.08
  99  0.558  0.889  0.557-  36 1.61  69 1.62  16 1.63  52 1.64 102 3.04  95 3.04 109 3.17 111 3.33

 100  0.556  0.657  0.770-  27 1.61  53 1.63  70 1.63  17 1.63 106 3.07 105 3.08 107 3.13
 101  0.093  0.659  0.564-  54 1.58  35 1.62  71 1.64  18 1.68  93 3.06 103 3.07 104 3.14 111 3.27

 102  0.557  0.666  0.552-  70 1.61  31 1.61  52 1.61  14 1.67  99 3.04  85 3.07  97 3.10
 103  0.112  0.663  0.771-  13 1.61  51 1.62  20 1.62  71 1.64  75 3.06 101 3.07  98 3.08
 104  0.095  0.431  0.560-  33 1.61  68 1.62  50 1.62  18 1.65  88 3.03  98 3.07 101 3.14
 105  0.555  0.881  0.774-  69 1.61  24 1.62  49 1.62  17 1.64  96 3.08 100 3.08  79 3.08
 106  0.338  0.426  0.761-  15 1.62  22 1.62  53 1.62  67 1.64  77 3.06 100 3.07  97 3.10
 107  0.774  0.765  0.890-  57 1.72   6 1.73  27 1.76  38 1.78  76 3.09 112 3.11 100 3.13  75 3.16
                            79 3.23
 108  0.657  0.095  0.230-  61 1.72   8 1.73  26 1.74  44 1.79  92 3.07 110 3.10  95 3.12  81 3.17
                            90 3.23
 109  0.332  0.899  0.556-  32 1.71  54 1.74  66 1.74  16 1.79  86 3.07  96 3.12  99 3.17 111 3.24

 110  0.562  0.022  0.036-  44 2.32  72 2.50  26 2.53 108 3.10  81 3.16
 111  0.319  0.672  0.479-  16 2.27  18 2.44  14 2.55 109 3.24 101 3.27  99 3.33
 112  0.783  0.590  0.761-  38 2.30 113 2.42  27 2.43 107 3.11  75 3.37
 113  0.703  0.424  0.667- 114 1.58 112 2.42
 114  0.734  0.345  0.723-  73 1.17 113 1.58
 
  LATTYP: Found a hexagonal cell.
 ALAT       =    13.6750001907
 C/A-ratio  =     1.0798537472
  
  Lattice vectors:
  
 A1 = (  13.6750001907,   0.0000000000,   0.0000000000)
 A2 = (  -6.8375000954,  11.8428975619,   0.0000000000)
 A3 = (   0.0000000000,   0.0000000000,  14.7670001984)


Analysis of symmetry for initial positions (statically):
=====================================================================
 Subroutine PRICEL returns:
 Original cell was already a primitive cell.
 

 Routine SETGRP: Setting up the symmetry group for a 
 hexagonal supercell.


 Subroutine GETGRP returns: Found  1 space group operations
 (whereof  1 operations were pure point group operations)
 out of a pool of 24 trial point group operations.


The static configuration has the point symmetry C_1 .


Analysis of symmetry for dynamics (positions and initial velocities):
=====================================================================
 Subroutine PRICEL returns:
 Original cell was already a primitive cell.
 

 Routine SETGRP: Setting up the symmetry group for a 
 hexagonal supercell.


 Subroutine GETGRP returns: Found  1 space group operations
 (whereof  1 operations were pure point group operations)
 out of a pool of 24 trial point group operations.


The dynamic configuration has the point symmetry C_1 .


Analysis of structural, dynamic, and magnetic symmetry:
=====================================================================
 Subroutine PRICEL returns:
 Original cell was already a primitive cell.
 

 Routine SETGRP: Setting up the symmetry group for a 
 hexagonal supercell.


 Subroutine GETGRP returns: Found  1 space group operations
 (whereof  1 operations were pure point group operations)
 out of a pool of 24 trial point group operations.


The magnetic configuration has the point symmetry C_1 .


 Subroutine INISYM returns: Found  1 space group operations
 (whereof  1 operations are pure point group operations),
 and found     1 'primitive' translations

 
 
 KPOINTS: Gamma points only                       
  k-points in reciprocal lattice
Space group operators:
 irot       det(A)        alpha          n_x          n_y          n_z        tau_x        tau_y        tau_z
    1     1.000000     0.000000     1.000000     0.000000     0.000000     0.000000     0.000000     0.000000

 ----------------------------------------------------------------------------- 
|                                                                             |
|           W    W    AA    RRRRR   N    N  II  N    N   GGGG   !!!           |
|           W    W   A  A   R    R  NN   N  II  NN   N  G    G  !!!           |
|           W    W  A    A  R    R  N N  N  II  N N  N  G       !!!           |
|           W WW W  AAAAAA  RRRRR   N  N N  II  N  N N  G  GGG   !            |
|           WW  WW  A    A  R   R   N   NN  II  N   NN  G    G                |
|           W    W  A    A  R    R  N    N  II  N    N   GGGG   !!!           |
|                                                                             |
|      Your generating k-point grid is not commensurate to the symmetry       |
|      of the lattice.  This can cause   slow convergence with respect        |
|      to k-points for HF type calculations                                   |
|      suggested SOLUTIONS:                                                   |
|       ) if not already the case, use automatic k-point generation           |
|       ) shift your grid to Gamma (G) (e.g. required for hex or fcc lattice) |
|                                                                             |
 ----------------------------------------------------------------------------- 

 
 Subroutine IBZKPT_HF returns following result:
 ==============================================
 
 Found      1 k-points in 1st BZ
 the following      1 k-points will be used (e.g. in the exchange kernel)
 Following reciprocal coordinates:   # in IRBZ
  0.000000  0.000000  0.000000    1.00000000   1 t-inv F


--------------------------------------------------------------------------------------------------------




 Dimension of arrays:
   k-points           NKPTS =      1   k-points in BZ     NKDIM =      1   number of bands    NBANDS=    432
   number of dos      NEDOS =    301   number of ions     NIONS =    114
   non local maximal  LDIM  =      6   non local SUM 2l+1 LMDIM =     18
   total plane-waves  NPLWV = 777600
   max r-space proj   IRMAX =   4725   max aug-charges    IRDMAX= 128081
   dimension x,y,z NGX =    90 NGY =   90 NGZ =   96
   dimension x,y,z NGXF=   180 NGYF=  180 NGZF=  192
   support grid    NGXF=   360 NGYF=  360 NGZF=  384
   ions per type =              73  33   3   3   1   1
   NGX,Y,Z   is equivalent  to a cutoff of  10.94, 10.94, 10.81 a.u.
   NGXF,Y,Z  is equivalent  to a cutoff of  21.88, 21.88, 21.62 a.u.

 SYSTEM =  SiO2                                    
 POSCAR =  O  C                                    

 Startparameter for this run:
   NWRITE =      2    write-flag & timer
   PREC   = acc       normal or accurate (medium, high low for compatibility)
   ISTART =      0    job   : 0-new  1-cont  2-samecut
   ICHARG =      2    charge: 1-file 2-atom 10-const
   ISPIN  =      2    spin polarized calculation?
   LNONCOLLINEAR =      F non collinear calculations
   LSORBIT =      F    spin-orbit coupling
   INIWAV =      1    electr: 0-lowe 1-rand  2-diag
   LASPH  =      F    aspherical Exc in radial PAW
   METAGGA=      F    non-selfconsistent MetaGGA calc.

 Electronic Relaxation 1
   ENCUT  =  400.0 eV  29.40 Ry    5.42 a.u.  22.30 22.30 24.08*2*pi/ulx,y,z
   ENINI  =  400.0     initial cutoff
   ENAUG  =  644.9 eV  augmentation charge cutoff
   NELM   =    100;   NELMIN=  2; NELMDL= -5     # of ELM steps 
   EDIFF  = 0.1E-04   stopping-criterion for ELM
   LREAL  =      T    real-space projection
   NLSPLINE    = F    spline interpolate recip. space projectors
   LCOMPAT=      F    compatible to vasp.4.4
   GGA_COMPAT  = T    GGA compatible to vasp.4.4-vasp.4.6
   LMAXPAW     = -100 max onsite density
   LMAXMIX     =    2 max onsite mixed and CHGCAR
   VOSKOWN=      0    Vosko Wilk Nusair interpolation
   ROPT   =   -0.00025  -0.00025  -0.00025  -0.00025
   ROPT   =   -0.00025  -0.00025
 Ionic relaxation
   EDIFFG = 0.1E-03   stopping-criterion for IOM
   NSW    =      0    number of steps for IOM
   NBLOCK =      1;   KBLOCK =      1    inner block; outer block 
   IBRION =     -1    ionic relax: 0-MD 1-quasi-New 2-CG
   NFREE  =      0    steps in history (QN), initial steepest desc. (CG)
   ISIF   =      0    stress and relaxation
   IWAVPR =     10    prediction:  0-non 1-charg 2-wave 3-comb
   ISYM   =      3    0-nonsym 1-usesym 2-fastsym
   LCORR  =      T    Harris-Foulkes like correction to forces

   POTIM  = 0.5000    time-step for ionic-motion
   TEIN   =    0.0    initial temperature
   TEBEG  =    0.0;   TEEND  =   0.0 temperature during run
   SMASS  =  -3.00    Nose mass-parameter (am)
   estimated Nose-frequenzy (Omega)   =  0.10E-29 period in steps =****** mass=  -0.427E-26a.u.
   SCALEE = 1.0000    scale energy and forces
   NPACO  =    256;   APACO  = 16.0  distance and # of slots for P.C.
   PSTRESS=    0.0 pullay stress

  Mass of Ions in am
   POMASS =  16.00 28.09 26.98107.87 32.07 12.01
  Ionic Valenz
   ZVAL   =   6.00  4.00  3.00 11.00  6.00  4.00
  Atomic Wigner-Seitz radii
   RWIGS  =  -1.00 -1.00 -1.00 -1.00 -1.00 -1.00
  virtual crystal weights 
   VCA    =   1.00  1.00  1.00  1.00  1.00  1.00
   NELECT =     622.0000    total number of electrons
   NUPDOWN=      -1.0000    fix difference up-down

 DOS related values:
   EMIN   =  10.00;   EMAX   =-10.00  energy-range for DOS
   EFERMI =   0.00
   ISMEAR =     0;   SIGMA  =   0.05  broadening in eV -4-tet -1-fermi 0-gaus

 Electronic relaxation 2 (details)
   IALGO  =     38    algorithm
   LDIAG  =      T    sub-space diagonalisation (order eigenvalues)
   LSUBROT=      F    optimize rotation matrix (better conditioning)
   TURBO    =      0    0=normal 1=particle mesh
   IRESTART =      0    0=no restart 2=restart with 2 vectors
   NREBOOT  =      0    no. of reboots
   NMIN     =      0    reboot dimension
   EREF     =   0.00    reference energy to select bands
   IMIX   =      1    mixing-type and parameters
     AMIX     =   0.40;   BMIX     =  1.00
     AMIX_MAG =   1.60;   BMIX_MAG =  1.00
     AMIN     =   0.10
     WC   =   100.;   INIMIX=   1;  MIXPRE=   1;  MAXMIX= -45

 Intra band minimization:
   WEIMIN = 0.0000     energy-eigenvalue tresh-hold
   EBREAK =  0.58E-08  absolut break condition
   DEPER  =   0.30     relativ break condition  

   TIME   =   0.40     timestep for ELM

  volume/ion in A,a.u.               =      20.98       141.57
  Fermi-wavevector in a.u.,A,eV,Ry     =   1.044991  1.974746 14.857638  1.092006
  Thomas-Fermi vector in A             =   2.179767
 
 Write flags
   LWAVE        =      F    write WAVECAR
   LDOWNSAMPLE  =      F    k-point downsampling of WAVECAR
   LCHARG       =      F    write CHGCAR
   LVTOT        =      F    write LOCPOT, total local potential
   LVHAR        =      F    write LOCPOT, Hartree potential only
   LELF         =      F    write electronic localiz. function (ELF)
   LORBIT       =     11    0 simple, 1 ext, 2 COOP (PROOUT), +10 PAW based schemes


 Dipole corrections
   LMONO  =      F    monopole corrections only (constant potential shift)
   LDIPOL =      F    correct potential (dipole corrections)
   IDIPOL =      0    1-x, 2-y, 3-z, 4-all directions 
   EPSILON=  1.0000000 bulk dielectric constant

 Exchange correlation treatment:
   GGA     =    PE    GGA type
   LEXCH   =     8    internal setting for exchange type
   VOSKOWN=      0    Vosko Wilk Nusair interpolation
   EXXOEP  =     0    0=HF, 1=EXX-LHF (local Hartree Fock) 2=EXX OEP
   LHFCALC =     T    Hartree Fock is set to
   LSYMGRAD=     F    symmetrize gradient (conserves proper symmetry)
   PRECFOCK=normal    Normal, Fast or Accurate (Low or Medium for compatibility)
   LRHFCALC=     F    long range Hartree Fock
   LRSCOR  =     F    long range correlation only (use DFT for short range part)
   LTHOMAS =     F    Thomas Fermi screening in HF
   LMODELHF=     F    short range full HF, long range fraction AEXX
   ENCUT4O =  -1.0   cutoff for four orbital integrals eV
   LMAXFOCK=     4    L truncation for augmentation on plane wave grid
   LMAXFOCKAE=  -1    L truncation for all-electron charge restoration on plane wave grid
   NMAXFOCKAE=   1    number of basis functions for all-electron charge restoration
   LFOCKAEDFT=     F  apply the AE augmentation even for DFT
   NKREDX  =     1    reduce k-point grid by
   NKREDY  =     1    reduce k-point grid by
   NKREDZ  =     1    reduce k-point grid by
   SHIFTRED=     F    shift reduced grid of Gamma
   HFKIDENT=     F    idential grid for each k-point
   ODDONLY =     F    use only odd q-grid points
   EVENONLY=     F    use only even q-grid points
   HFALPHA =   -1.0000 decay constant for conv. correction
   MCALPHA =    0.0000 extent of test-charge in conv. correction in multipole expansion
   AEXX    =    0.2500 exact exchange contribution
   HFSCREEN=    0.2000 screening length (either q_TF or 0.3 A-1)
   HFSCREENC=   0.2000 screening length for correlation (either q_TF or 0.3 A-1)
   HFRCUT  =    0.0000 spherical cutoff for potential kernel
   ALDAX   =    0.7500 LDA exchange part
   AGGAX   =    0.7500 GGA exchange part
   ALDAC   =    1.0000 LDA correlation
   AGGAC   =    1.0000 GGA correlation
   ENCUTFOCK=  -1.0 apply spherical cutoff to Coloumb kernel
   NBANDSGWLOW=     1    first orbital included in HF term
   NBLOCK_FOCK=    64    blocking factor in FOCK_ACC
 Linear response parameters
   LEPSILON=     F    determine dielectric tensor
   LRPA    =     F    only Hartree local field effects (RPA)
   LNABLA  =     F    use nabla operator in PAW spheres
   LVEL    =     F    velocity operator in full k-point grid
   LINTERFAST=   F  fast interpolation
   KINTER  =     0    interpolate to denser k-point grid
   CSHIFT  =0.1000    complex shift for real part using Kramers Kronig
   OMEGAMAX=  -1.0    maximum frequency
   DEG_THRESHOLD= 0.2000000E-02 threshold for treating states as degnerate
   RTIME   =   -0.100 relaxation time in fs
  (WPLASMAI=    0.000 imaginary part of plasma frequency in eV, 0.658/RTIME)
   DFIELD  = 0.0000000 0.0000000 0.0000000 field for delta impulse in time
 
 Orbital magnetization related:
   ORBITALMAG=     F  switch on orbital magnetization
   LCHIMAG   =     F  perturbation theory with respect to B field
   DQ        =  0.001000  dq finite difference perturbation B field
   LLRAUG    =     F  two centre corrections for induced B field



--------------------------------------------------------------------------------------------------------


 Static calculation
 charge density and potential will be updated during run
 spin polarized calculation
 Variant of blocked Davidson
 Davidson routine will perform the subspace rotation
 perform sub-space diagonalisation
    after iterative eigenvector-optimisation
 Kerker-like  mixing scheme
 using additional bands          121
 real space projection scheme for non local part
 use partial core corrections
 calculate Harris-corrections to forces 
   (improved forces if not selfconsistent)
 use gradient corrections 
 use of overlap-Matrix (Vanderbilt PP)
 Gauss-broadening in eV      SIGMA  =   0.05


--------------------------------------------------------------------------------------------------------


  energy-cutoff  :      400.00
  volume of cell :     2391.54
      direct lattice vectors                 reciprocal lattice vectors
    13.675000191  0.000000000  0.000000000     0.073126142  0.042219398  0.000000000
    -6.837500095 11.842897562  0.000000000     0.000000000  0.084438795  0.000000000
     0.000000000  0.000000000 14.767000198     0.000000000  0.000000000  0.067718561

  length of vectors
    13.675000191 13.675000191 14.767000198     0.084438795  0.084438795  0.067718561


 
 k-points in units of 2pi/SCALE and weight: Gamma points only                       
   0.00000000  0.00000000  0.00000000       1.000
 
 k-points in reciprocal lattice and weights: Gamma points only                       
   0.00000000  0.00000000  0.00000000       1.000
 
 position of ions in fractional coordinates (direct lattice) 
   0.89934965  0.09754288  0.11802622
   0.10524284  0.88823808  0.87899838
   0.89414273  0.79371453  0.12939885
   0.09665365  0.19728696  0.86517555
   0.19707950  0.10415284  0.11451062
   0.80503296  0.90360021  0.88036957
   0.55561697  0.42726886  0.45593404
   0.76413539  0.23375249  0.21720731
   0.56726660  0.14198715  0.47031761
   0.76778514  0.53966464  0.20561745
   0.86408468  0.42564864  0.46082546
   0.46558280  0.23577747  0.18237003
   0.23350093  0.77525182  0.77499575
   0.42520959  0.56964867  0.52353394
   0.23187908  0.44740780  0.77101111
   0.42914478  0.85151365  0.52936443
   0.53010223  0.75549404  0.80342468
   0.12506066  0.56047268  0.53319842
   0.97803751  0.31599834  0.16025899
   0.02465249  0.66868364  0.84256064
   0.67806908  0.67275609  0.17194690
   0.31451333  0.31558213  0.81737537
   0.31891058  0.01506403  0.17737818
   0.66570111  0.97865426  0.82565304
   0.32474619  0.98576572  0.83735061
   0.67803250  0.00412514  0.16090787
   0.67100337  0.67263027  0.81270022
   0.33315178  0.32346178  0.15691017
   0.01814349  0.33702084  0.83169297
   0.98875077  0.67032325  0.17219954
   0.64744224  0.64146581  0.50311996
   0.34321282  0.99426677  0.47484516
   0.99564903  0.33870337  0.49713271
   0.33746738  0.35061506  0.47983634
   0.98625494  0.64247295  0.50507231
   0.65016258  0.00769665  0.51429441
   0.11855219  0.24322626  0.12860865
   0.88614875  0.74494207  0.85282543
   0.76218915  0.87816424  0.11075338
   0.22880928  0.10786647  0.87046192
   0.11270927  0.88316417  0.12844110
   0.87723702  0.12230672  0.85871713
   0.77480357  0.55665167  0.46660496
   0.53609707  0.08593564  0.17418390
   0.41680984  0.21069671  0.46680933
   0.90314262  0.45343582  0.19568520
   0.78452756  0.20712596  0.45310460
   0.54789726  0.45555734  0.19366837
   0.45010915  0.89645747  0.80717431
   0.21006360  0.42778945  0.54061931
   0.12426926  0.55547101  0.80064167
   0.57947813  0.78789404  0.51947491
   0.45040882  0.53439942  0.79954586
   0.20234859  0.77683323  0.54439134
   0.99878819  0.25832207  0.99433288
   0.99107528  0.73009857  0.00257894
   0.73630134  0.71354650  0.99892007
   0.25725446  0.26653651  0.99058705
   0.26817397  0.99926220  0.00320157
   0.66111437  0.58931955  0.33296850
   0.63296533  0.05011092  0.34072923
   0.44131915  0.10828220  0.32433027
   0.92135050  0.58653754  0.33490906
   0.93865233  0.34487992  0.32941910
   0.40707695  0.32328682  0.32139555
   0.35978622  0.95020314  0.66630815
   0.35463707  0.40892034  0.65308019
   0.05818711  0.40634580  0.66477337
   0.57508245  0.89706438  0.66634211
   0.56808500  0.65928060  0.66031658
   0.05481936  0.64046891  0.67060919
   0.73321023  0.01093300  0.99281693
   0.75375678  0.28176724  0.76103736
   0.99712086  0.22806017  0.10096402
   0.00227696  0.76018625  0.89559672
   0.76683674  0.76330083  0.09934986
   0.22364226  0.22169977  0.88694176
   0.22383584  0.00137636  0.10570536
   0.77249938  0.00010900  0.88834938
   0.23090327  0.99450939  0.89758053
   0.77004236  0.99800242  0.09809115
   0.22653189  0.23360927  0.09718525
   0.99780549  0.22703647  0.88859131
   0.99553425  0.76916717  0.10738774
   0.65967509  0.55342386  0.43712144
   0.44073795  0.11002895  0.43456435
   0.89411106  0.56138675  0.22716734
   0.89342171  0.32741752  0.43276506
   0.43896928  0.33395817  0.21436091
   0.89165238  0.33326752  0.22527062
   0.42940018  0.32654188  0.42931033
   0.44120829  0.11126005  0.21550817
   0.88719286  0.55208552  0.43969320
   0.66489676  0.56425396  0.22552071
   0.65706194  0.10073580  0.44108159
   0.34181657  0.90326628  0.76731785
   0.33206291  0.43700574  0.55089179
   0.10848321  0.43604088  0.76743905
   0.55806380  0.88858509  0.55733829
   0.55570044  0.65663795  0.77009960
   0.09320745  0.65936557  0.56419008
   0.55657029  0.66572032  0.55247794
   0.11169537  0.66269101  0.77145024
   0.09506507  0.43108444  0.55954668
   0.55492523  0.88140034  0.77430649
   0.33759602  0.42626479  0.76057445
   0.77361567  0.76483144  0.89022021
   0.65669617  0.09536873  0.22973536
   0.33206121  0.89948425  0.55588160
   0.56209950  0.02249731  0.03559568
   0.31937126  0.67150412  0.47901233
   0.78318639  0.59019247  0.76147849
   0.70316680  0.42401332  0.66664613
   0.73377188  0.34450345  0.72300427
 
 position of ions in cartesian coordinates  (Angst):
  11.63165711  1.15519036  1.74289317
  -4.63413217 10.51931261 12.98016923
   6.80037884  9.39987992  1.91083287
  -0.02721089  2.33644925 12.77604750
   1.98291711  1.23347137  1.69097841
   4.83045938 10.70124470 13.00041766
   4.67661124  5.06010137  6.73277807
   8.85126894  2.76830681  3.20750041
   6.78653371  1.68153927  6.94518022
   6.80950496  6.39119300  3.03635292
   8.90598550  5.04091324  6.80500967
   4.75471633  2.79228848  2.69305824
  -2.10765911  9.18122784 11.44436243
   1.91976832  6.74629089  7.73102578
   0.11179557  5.29860477 11.38552117
   0.04633025 10.08438889  7.81712471
   2.08345750  8.94723858 11.86417246
  -2.12202745  6.63762058  7.87374123
  11.21402451  3.74233593  2.36654454
  -4.23500165  7.91915185 12.44209321
   4.67262494  7.96738148  2.53913992
   2.14317704  3.73740679 12.07018223
   4.25810186  0.17840182  2.61934355
   2.41191417 11.59010210 12.19241867
  -2.29926896 11.67432246 12.36515664
   9.24388890  0.04885358  2.37612659
   4.57686167  7.96589144 12.00114432
   2.34418065  3.83072473  2.31709256
  -2.05626776  3.99130327 12.28161024
   8.93783169  7.93856958  2.54287071
   4.46775017  7.59681391  7.42957255
  -2.10486374 11.77499952  7.01203856
  11.29961635  4.01122931  7.34115890
   2.21753590  4.15229829  7.08574340
   9.09412765  7.60874136  7.45840294
   8.83834751  0.09115067  7.59458562
  -0.04185832  2.88050370  1.89916390
   7.02454283  8.82227258 12.59367327
   4.41848865 10.40000910  1.63549518
   2.39142992  1.27745160 12.85411128
  -4.49733581 10.45922281  1.89668972
  11.15994429  1.44846590 12.68067609
   6.78933311  6.59236868  6.89035557
   6.74354254  1.01772698  2.57217367
   4.25923592  2.49525957  6.89337342
   9.25010811  5.36999394  2.88968334
   9.31219072  2.45297150  6.69099575
   4.37762181  5.39511887  2.85990083
   0.02571468 10.61665399 11.91954319
  -0.05239067  5.06626664  7.98332552
  -2.09865090  6.57838627 11.82307575
   2.53713800  9.33094841  7.67108606
   2.50538463  6.32883755 11.80689390
  -2.54448026  9.19995635  8.03902703
  11.89215156  3.05928175 14.68331380
   8.56090565  8.64648257  0.03808318
   5.19004667  8.45045812 14.75105294
   1.69551137  3.15656456 14.62799922
  -3.16517631 11.83415993  0.04727763
   5.01126664  6.97925111  4.91694588
   8.31316752  0.59345855  5.03154860
   5.29465998  1.28237497  4.78938515
   8.58901772  6.94630401  4.94560219
  10.47795425  4.08437754  4.86453193
   3.35630366  3.82865268  4.74604822
  -1.57693745 11.25315840  9.83937263
   2.05366907  4.84280172  9.64403524
  -1.98268066  4.81231168  9.81670847
   1.73057478 10.62384157  9.83987413
   3.26073135  7.80779265  9.75089511
  -3.62955147  7.58500770  9.90288602
   9.95189564  0.12947834 14.66092773
   8.38104050  3.33694059 11.23823883
  12.07626656  2.70089325  1.49093573
  -5.16663619  9.00280794 13.22527696
   5.26742302  9.03969353  1.46709943
   1.54243569  2.62556766 13.09746918
   3.05154430  0.01630009  1.56095102
  10.56318388  0.00129084 13.11825544
  -3.64235571 11.77787279 13.25457188
   3.70648776 11.81924037  1.44851209
   1.50052027  2.76661066  1.43513462
  12.09262844  2.68876964 13.12182802
   8.35475046  9.10916798  1.58579476
   5.23702123  6.55414214  6.45497242
   5.27476865  1.30306160  6.41721187
   8.38848699  6.64844578  3.35458009
   9.97882475  3.87757214  6.39064172
   3.71946592  3.95503244  3.16546753
   9.91462981  3.94685307  3.32657134
   3.63931746  3.86720201  6.33962571
   5.27278286  1.31764141  3.18240923
   8.35747773  6.53829221  6.49294963
   5.23437680  6.68240183  3.33026435
   8.29654116  1.19300378  6.51345198
  -1.50174154 10.69728999 11.33098279
   1.55293353  5.17541419  8.13501910
  -1.49792167  5.16398748 11.33277263
   1.55582193 10.52342218  8.23021459
   3.10944154  7.77649597 11.37206092
  -3.23380020  7.80879886  8.33139504
   3.05923601  7.88405756  8.15844189
  -3.00371564  7.84818172 11.39200582
  -1.64752498  5.10528882  8.26282599
   1.56202773 10.43833391 11.43418404
   1.70204006  5.04821025 11.23140306
   5.34965942  9.05782034 13.14588197
   8.32823663  1.12944204  3.39250211
  -1.60928650 10.65249988  8.20870370
   7.53288540  0.26643330  0.52564143
  -0.22400744  7.95255449  7.07357515
   6.67463299  6.98958891 11.24475306
   6.71661499  5.02154631  9.84436347
   7.67878830  4.07991904 10.67660415
 


--------------------------------------------------------------------------------------------------------


 k-point  1 :   0.0000 0.0000 0.0000  plane waves:   43405

 maximum and minimum number of plane-waves per node :     10852    10850

 maximum number of plane-waves:     43405
 maximum index in each direction: 
   IXMAX=   22   IYMAX=   22   IZMAX=   24
   IXMIN=  -22   IYMIN=  -22   IZMIN=  -24


 real space projection operators:
  total allocation   :      30727.52 KBytes
  max/ min on nodes  :       7845.31       7510.06


 parallel 3D FFT for wavefunctions:
    minimum data exchange during FFTs selected (reduces bandwidth)
 parallel 3D FFT for charge:
    minimum data exchange during FFTs selected (reduces bandwidth)


 FFT grid for exact exchange (Hartree Fock) 
  NGX = 70; NGY = 70; NGZ = 80

 
 Radii for the augmentation spheres in the non-local exchange
 for species   1 augmentation radius   0.820 (default was   0.722)
       energy cutoff for augmentation   1600.0
 for species   2 augmentation radius   1.055 (default was   0.989)
       energy cutoff for augmentation   1600.0
 for species   3 augmentation radius   1.041 (default was   1.041)
       energy cutoff for augmentation   1600.0
 for species   4 augmentation radius   1.279 (default was   1.125)
       energy cutoff for augmentation   1600.0
 for species   5 augmentation radius   1.034 (default was   0.970)
       energy cutoff for augmentation   1600.0
 for species   6 augmentation radius   0.795 (default was   0.699)
       energy cutoff for augmentation   1600.0

 real space projection operators:
  total allocation   :       4883.52 KBytes
  max/ min on nodes  :       1246.71       1194.20

 Maximum index for augmentation-charges in exchange          369
  SETUP_FOCK is finished

 total amount of memory used by VASP MPI-rank0   225221. kBytes
=======================================================================

   base      :      30000. kBytes
   nonlr-proj:      23203. kBytes
   fftplans  :      69849. kBytes
   grid      :      62827. kBytes
   one-center:        902. kBytes
   HF        :         93. kBytes
   wavefun   :      38347. kBytes
 
     INWAV:  cpu time    0.0000: real time    0.0002
 initial charge density was supplied:
 charge density of overlapping atoms calculated
 number of electron     622.0000000 magnetization     114.0000000
 keeping initial charge density in first step


--------------------------------------------------------------------------------------------------------


 Maximum index for non-local projection operator         1312
 Maximum index for augmentation-charges         7860 (set IRDMAX)


--------------------------------------------------------------------------------------------------------


 First call to EWALD:  gamma=   0.133
 Maximum number of real-space cells 3x 3x 3
 Maximum number of reciprocal cells 3x 3x 3

    FEWALD:  cpu time    0.0069: real time    0.0069


--------------------------------------- Iteration      1(   1)  ---------------------------------------


    POTLOK:  cpu time    1.9280: real time    1.9488
    SETDIJ:  cpu time    1.1564: real time    1.1593
     EDDAV:  cpu time   25.7882: real time   25.8575
       DOS:  cpu time    0.0007: real time    0.0007
    --------------------------------------------
      LOOP:  cpu time   28.8732: real time   28.9663

 eigenvalue-minimisations  :  1744
 total energy-change (2. order) : 0.5415839E+04  (-0.2487838E+05)
 number of electron     622.0000000 magnetization     114.0000000
 augmentation part      622.0000000 magnetization     114.0000000

 Free energy of the ion-electron system (eV)
  ---------------------------------------------------
  alpha Z        PSCENC =       648.78857340
  Ewald energy   TEWEN  =     -6938.04979133
  -Hartree energ DENC   =    -28324.25254871
  -exchange      EXHF   =         0.00000000
  -V(xc)+E(xc)   XCENC  =      1266.42403856
  PAW double counting   =     22212.25602133   -21646.53644264
  entropy T*S    EENTRO =        -0.03814198
  eigenvalues    EBANDS =       -74.44213685
  atomic energy  EATOM  =     38271.68908261
  Solvation  Ediel_sol  =         0.00000000
  ---------------------------------------------------
  free energy    TOTEN  =      5415.83865441 eV

  energy without entropy =     5415.87679638  energy(sigma->0) =     5415.85772540
  exchange ACFDT corr.  =         0.00000000  see jH, gK, PRB 81, 115126


--------------------------------------------------------------------------------------------------------




--------------------------------------- Iteration      1(   2)  ---------------------------------------


     EDDAV:  cpu time   30.6340: real time   30.7222
       DOS:  cpu time    0.0003: real time    0.0003
    --------------------------------------------
      LOOP:  cpu time   30.6343: real time   30.7225

 eigenvalue-minimisations  :  2144
 total energy-change (2. order) :-0.4366115E+04  (-0.4104124E+04)
 number of electron     622.0000000 magnetization     114.0000000
 augmentation part      622.0000000 magnetization     114.0000000

 Free energy of the ion-electron system (eV)
  ---------------------------------------------------
  alpha Z        PSCENC =       648.78857340
  Ewald energy   TEWEN  =     -6938.04979133
  -Hartree energ DENC   =    -28324.25254871
  -exchange      EXHF   =         0.00000000
  -V(xc)+E(xc)   XCENC  =      1266.42403856
  PAW double counting   =     22212.25602133   -21646.53644264
  entropy T*S    EENTRO =        -0.00000000
  eigenvalues    EBANDS =     -4440.59513926
  atomic energy  EATOM  =     38271.68908261
  Solvation  Ediel_sol  =         0.00000000
  ---------------------------------------------------
  free energy    TOTEN  =      1049.72379397 eV

  energy without entropy =     1049.72379397  energy(sigma->0) =     1049.72379397
  exchange ACFDT corr.  =         0.00000000  see jH, gK, PRB 81, 115126


--------------------------------------------------------------------------------------------------------




--------------------------------------- Iteration      1(   3)  ---------------------------------------


     EDDAV:  cpu time   29.9552: real time   30.0401
       DOS:  cpu time    0.0003: real time    0.0003
    --------------------------------------------
      LOOP:  cpu time   29.9555: real time   30.0405

 eigenvalue-minimisations  :  2072
 total energy-change (2. order) :-0.5073290E+03  (-0.5030910E+03)
 number of electron     622.0000000 magnetization     114.0000000
 augmentation part      622.0000000 magnetization     114.0000000

 Free energy of the ion-electron system (eV)
  ---------------------------------------------------
  alpha Z        PSCENC =       648.78857340
  Ewald energy   TEWEN  =     -6938.04979133
  -Hartree energ DENC   =    -28324.25254871
  -exchange      EXHF   =         0.00000000
  -V(xc)+E(xc)   XCENC  =      1266.42403856
  PAW double counting   =     22212.25602133   -21646.53644264
  entropy T*S    EENTRO =        -0.00000000
  eigenvalues    EBANDS =     -4947.92411520
  atomic energy  EATOM  =     38271.68908261
  Solvation  Ediel_sol  =         0.00000000
  ---------------------------------------------------
  free energy    TOTEN  =       542.39481803 eV

  energy without entropy =      542.39481803  energy(sigma->0) =      542.39481803
  exchange ACFDT corr.  =         0.00000000  see jH, gK, PRB 81, 115126


--------------------------------------------------------------------------------------------------------




--------------------------------------- Iteration      1(   4)  ---------------------------------------


     EDDAV:  cpu time   30.6723: real time   30.7583
       DOS:  cpu time    0.0003: real time    0.0003
    --------------------------------------------
      LOOP:  cpu time   30.6726: real time   30.7586

 eigenvalue-minimisations  :  2104
 total energy-change (2. order) :-0.1111358E+02  (-0.1106134E+02)
 number of electron     622.0000000 magnetization     114.0000000
 augmentation part      622.0000000 magnetization     114.0000000

 Free energy of the ion-electron system (eV)
  ---------------------------------------------------
  alpha Z        PSCENC =       648.78857340
  Ewald energy   TEWEN  =     -6938.04979133
  -Hartree energ DENC   =    -28324.25254871
  -exchange      EXHF   =         0.00000000
  -V(xc)+E(xc)   XCENC  =      1266.42403856
  PAW double counting   =     22212.25602133   -21646.53644264
  entropy T*S    EENTRO =        -0.00000000
  eigenvalues    EBANDS =     -4959.03769907
  atomic energy  EATOM  =     38271.68908261
  Solvation  Ediel_sol  =         0.00000000
  ---------------------------------------------------
  free energy    TOTEN  =       531.28123416 eV

  energy without entropy =      531.28123416  energy(sigma->0) =      531.28123416
  exchange ACFDT corr.  =         0.00000000  see jH, gK, PRB 81, 115126


--------------------------------------------------------------------------------------------------------




--------------------------------------- Iteration      1(   5)  ---------------------------------------


     EDDAV:  cpu time 3379.5004: real time 3388.3009
       DOS:  cpu time    0.0003: real time    0.0003
    CHARGE:  cpu time    2.2739: real time    2.2794
    MIXING:  cpu time    0.0086: real time    0.0086
    --------------------------------------------
      LOOP:  cpu time 3381.7832: real time 3390.5892

 eigenvalue-minimisations  :  2184
 total energy-change (2. order) :-0.1838406E+04  (-0.4313896E+02)
 number of electron     622.0000001 magnetization     -68.4000000
 augmentation part       69.2225532 magnetization     -67.3967398

 Free energy of the ion-electron system (eV)
  ---------------------------------------------------
  alpha Z        PSCENC =       648.78857340
  Ewald energy   TEWEN  =     -6938.04979133
  -Hartree energ DENC   =    -28324.25254871
  -exchange      EXHF   =      1773.57105649
  -V(xc)+E(xc)   XCENC  =      1266.42403856
  PAW double counting   =     22212.25602133   -21646.53644264
  entropy T*S    EENTRO =        -0.00000000
  eigenvalues    EBANDS =     -8571.01447891
  atomic energy  EATOM  =     38271.68908261
  Solvation  Ediel_sol  =         0.00000000
  ---------------------------------------------------
  free energy    TOTEN  =     -1307.12448918 eV

  energy without entropy =    -1307.12448918  energy(sigma->0) =    -1307.12448918
  exchange ACFDT corr.  =         0.00000000  see jH, gK, PRB 81, 115126


--------------------------------------------------------------------------------------------------------




--------------------------------------- Iteration      1(   6)  ---------------------------------------


    POTLOK:  cpu time    1.6877: real time    1.6993
    SETDIJ:  cpu time    1.1762: real time    1.1791
     EDDAV:  cpu time 3175.6357: real time 3183.9350
       DOS:  cpu time    0.0003: real time    0.0003
    CHARGE:  cpu time    2.2931: real time    2.2987
    MIXING:  cpu time    0.0188: real time    0.0189
    --------------------------------------------
      LOOP:  cpu time 3180.8119: real time 3189.1313

 eigenvalue-minimisations  :  2016
 total energy-change (2. order) : 0.1874514E+03  (-0.2882026E+02)
 number of electron     622.0000001 magnetization      41.0400000
 augmentation part       63.0797945 magnetization      41.2688320

 Free energy of the ion-electron system (eV)
  ---------------------------------------------------
  alpha Z        PSCENC =       648.78857340
  Ewald energy   TEWEN  =     -6938.04979133
  -Hartree energ DENC   =    -29671.48410546
  -exchange      EXHF   =      1901.56716822
  -V(xc)+E(xc)   XCENC  =      1381.28624926
  PAW double counting   =     26055.90106291   -25509.26194880
  entropy T*S    EENTRO =        -0.00000000
  eigenvalues    EBANDS =     -7260.10935089
  atomic energy  EATOM  =     38271.68908261
  Solvation  Ediel_sol  =         0.00000000
  ---------------------------------------------------
  free energy    TOTEN  =     -1119.67306008 eV

  energy without entropy =    -1119.67306008  energy(sigma->0) =    -1119.67306008
  exchange ACFDT corr.  =         0.00000000  see jH, gK, PRB 81, 115126


--------------------------------------------------------------------------------------------------------




--------------------------------------- Iteration      1(   7)  ---------------------------------------


    POTLOK:  cpu time    1.7355: real time    1.7520
    SETDIJ:  cpu time    1.1349: real time    1.1377
     EDDAV:  cpu time 3017.7084: real time 3025.1900
       DOS:  cpu time    0.0003: real time    0.0003
    CHARGE:  cpu time    2.2995: real time    2.3051
    MIXING:  cpu time    0.0108: real time    0.0108
    --------------------------------------------
      LOOP:  cpu time 3022.8894: real time 3030.3958

 eigenvalue-minimisations  :  1896
 total energy-change (2. order) :-0.3568396E+02  (-0.1514351E+02)
 number of electron     622.0000001 magnetization     -24.6240000
 augmentation part       59.3942547 magnetization     -24.8941307

 Free energy of the ion-electron system (eV)
  ---------------------------------------------------
  alpha Z        PSCENC =       648.78857340
  Ewald energy   TEWEN  =     -6938.04979133
  -Hartree energ DENC   =    -30159.11484105
  -exchange      EXHF   =      1825.33224546
  -V(xc)+E(xc)   XCENC  =      1371.92931204
  PAW double counting   =     27575.34217822   -27032.14323218
  entropy T*S    EENTRO =        -0.00000000
  eigenvalues    EBANDS =     -6719.13055070
  atomic energy  EATOM  =     38271.68908261
  Solvation  Ediel_sol  =         0.00000000
  ---------------------------------------------------
  free energy    TOTEN  =     -1155.35702352 eV

  energy without entropy =    -1155.35702352  energy(sigma->0) =    -1155.35702352
  exchange ACFDT corr.  =         0.00000000  see jH, gK, PRB 81, 115126


--------------------------------------------------------------------------------------------------------




--------------------------------------- Iteration      1(   8)  ---------------------------------------


    POTLOK:  cpu time    1.6853: real time    1.6978
    SETDIJ:  cpu time    1.0985: real time    1.1012
     EDDAV:  cpu time 2956.3384: real time 2963.5492
       DOS:  cpu time    0.0003: real time    0.0003
    CHARGE:  cpu time    2.2518: real time    2.2571
    MIXING:  cpu time    0.0086: real time    0.0086
    --------------------------------------------
      LOOP:  cpu time 2961.3829: real time 2968.6143

 eigenvalue-minimisations  :  1864
 total energy-change (2. order) :-0.2131496E+02  (-0.4816697E+01)
 number of electron     622.0000002 magnetization      14.7744000
 augmentation part       58.9023868 magnetization      14.7414535

 Free energy of the ion-electron system (eV)
  ---------------------------------------------------
  alpha Z        PSCENC =       648.78857340
  Ewald energy   TEWEN  =     -6938.04979133
  -Hartree energ DENC   =    -30205.10651466
  -exchange      EXHF   =      1778.64569052
  -V(xc)+E(xc)   XCENC  =      1358.97263444
  PAW double counting   =     27918.66144506   -27373.86199032
  entropy T*S    EENTRO =        -0.00000000
  eigenvalues    EBANDS =     -6636.41111187
  atomic energy  EATOM  =     38271.68908261
  Solvation  Ediel_sol  =         0.00000000
  ---------------------------------------------------
  free energy    TOTEN  =     -1176.67198216 eV

  energy without entropy =    -1176.67198216  energy(sigma->0) =    -1176.67198216
  exchange ACFDT corr.  =        -0.00000000  see jH, gK, PRB 81, 115126


--------------------------------------------------------------------------------------------------------




--------------------------------------- Iteration      1(   9)  ---------------------------------------


    POTLOK:  cpu time    1.7287: real time    1.7424
    SETDIJ:  cpu time    1.0786: real time    1.0812
     EDDAV:  cpu time 2893.8468: real time 2903.6731
       DOS:  cpu time    0.0003: real time    0.0003
    CHARGE:  cpu time    2.2442: real time    2.2495
    MIXING:  cpu time    0.0131: real time    0.0132
    --------------------------------------------
      LOOP:  cpu time 2898.9117: real time 2908.7596

 eigenvalue-minimisations  :  1832
 total energy-change (2. order) :-0.1368148E+02  (-0.2041328E+01)
 number of electron     622.0000002 magnetization      -8.8646400
 augmentation part       59.1430957 magnetization      -8.9911725

 Free energy of the ion-electron system (eV)
  ---------------------------------------------------
  alpha Z        PSCENC =       648.78857340
  Ewald energy   TEWEN  =     -6938.04979133
  -Hartree energ DENC   =    -30201.93222189
  -exchange      EXHF   =      1770.67186239
  -V(xc)+E(xc)   XCENC  =      1346.30999833
  PAW double counting   =     28040.45273932   -27494.49642178
  entropy T*S    EENTRO =        -0.00000000
  eigenvalues    EBANDS =     -6633.78728286
  atomic energy  EATOM  =     38271.68908261
  Solvation  Ediel_sol  =         0.00000000
  ---------------------------------------------------
  free energy    TOTEN  =     -1190.35346180 eV

  energy without entropy =    -1190.35346180  energy(sigma->0) =    -1190.35346180
  exchange ACFDT corr.  =        -0.00000000  see jH, gK, PRB 81, 115126


--------------------------------------------------------------------------------------------------------




--------------------------------------- Iteration      1(  10)  ---------------------------------------


    POTLOK:  cpu time    1.7367: real time    1.7501
    SETDIJ:  cpu time    1.0790: real time    1.0832
     EDDAV:  cpu time 2842.0922: real time 2866.4242
       DOS:  cpu time    0.0003: real time    0.0003
    CHARGE:  cpu time    2.2701: real time    2.2793
    MIXING:  cpu time    0.0099: real time    0.0099
    --------------------------------------------
      LOOP:  cpu time 2847.1881: real time 2871.5470

 eigenvalue-minimisations  :  1856
 total energy-change (2. order) :-0.3926166E+01  (-0.9059046E+00)
 number of electron     622.0000002 magnetization       5.3187840
 augmentation part       59.3573621 magnetization       5.3036324

 Free energy of the ion-electron system (eV)
  ---------------------------------------------------
  alpha Z        PSCENC =       648.78857340
  Ewald energy   TEWEN  =     -6938.04979133
  -Hartree energ DENC   =    -30222.30757529
  -exchange      EXHF   =      1772.81543114
  -V(xc)+E(xc)   XCENC  =      1344.26734110
  PAW double counting   =     28144.14819998   -27597.87576869
  entropy T*S    EENTRO =        -0.00000000
  eigenvalues    EBANDS =     -6617.75512085
  atomic energy  EATOM  =     38271.68908261
  Solvation  Ediel_sol  =         0.00000000
  ---------------------------------------------------
  free energy    TOTEN  =     -1194.27962793 eV

  energy without entropy =    -1194.27962793  energy(sigma->0) =    -1194.27962793
  exchange ACFDT corr.  =        -0.00000000  see jH, gK, PRB 81, 115126


--------------------------------------------------------------------------------------------------------




--------------------------------------- Iteration      1(  11)  ---------------------------------------


    POTLOK:  cpu time    1.8096: real time    1.8449
    SETDIJ:  cpu time    1.0835: real time    1.0999
     EDDAV:  cpu time 2802.8953: real time 2823.1788
       DOS:  cpu time    0.0003: real time    0.0003
    CHARGE:  cpu time    2.2545: real time    2.2601
    MIXING:  cpu time    0.0085: real time    0.0085
    --------------------------------------------
      LOOP:  cpu time 2808.0517: real time 2828.3924

 eigenvalue-minimisations  :  1816
 total energy-change (2. order) :-0.4836440E+01  (-0.3843586E+00)
 number of electron     622.0000002 magnetization      -3.1912704
 augmentation part       59.3542681 magnetization      -3.2214579

 Free energy of the ion-electron system (eV)
  ---------------------------------------------------
  alpha Z        PSCENC =       648.78857340
  Ewald energy   TEWEN  =     -6938.04979133
  -Hartree energ DENC   =    -30252.47648853
  -exchange      EXHF   =      1774.45103410
  -V(xc)+E(xc)   XCENC  =      1341.66136516
  PAW double counting   =     28228.13956600   -27681.92216112
  entropy T*S    EENTRO =        -0.00000000
  eigenvalues    EBANDS =     -6591.39724844
  atomic energy  EATOM  =     38271.68908261
  Solvation  Ediel_sol  =         0.00000000
  ---------------------------------------------------
  free energy    TOTEN  =     -1199.11606815 eV

  energy without entropy =    -1199.11606815  energy(sigma->0) =    -1199.11606815
  exchange ACFDT corr.  =         0.00000000  see jH, gK, PRB 81, 115126


--------------------------------------------------------------------------------------------------------




--------------------------------------- Iteration      1(  12)  ---------------------------------------


    POTLOK:  cpu time    1.8128: real time    1.8230
    SETDIJ:  cpu time    1.0907: real time    1.0933
     EDDAV:  cpu time 2838.4605: real time 2861.8706
       DOS:  cpu time    0.0003: real time    0.0003
    CHARGE:  cpu time    2.2545: real time    2.2599
    MIXING:  cpu time    0.0081: real time    0.0081
    --------------------------------------------
      LOOP:  cpu time 2843.6267: real time 2867.0551

 eigenvalue-minimisations  :  1848
 total energy-change (2. order) :-0.2956779E+00  (-0.1237201E+00)
 number of electron     622.0000002 magnetization       1.9147622
 augmentation part       59.3221447 magnetization       1.9158762

 Free energy of the ion-electron system (eV)
  ---------------------------------------------------
  alpha Z        PSCENC =       648.78857340
  Ewald energy   TEWEN  =     -6938.04979133
  -Hartree energ DENC   =    -30271.36146073
  -exchange      EXHF   =      1773.78689922
  -V(xc)+E(xc)   XCENC  =      1342.17558651
  PAW double counting   =     28271.60963710   -27725.44440365
  entropy T*S    EENTRO =        -0.00000000
  eigenvalues    EBANDS =     -6572.60586914
  atomic energy  EATOM  =     38271.68908261
  Solvation  Ediel_sol  =         0.00000000
  ---------------------------------------------------
  free energy    TOTEN  =     -1199.41174600 eV

  energy without entropy =    -1199.41174600  energy(sigma->0) =    -1199.41174600
  exchange ACFDT corr.  =         0.00000000  see jH, gK, PRB 81, 115126


--------------------------------------------------------------------------------------------------------




--------------------------------------- Iteration      1(  13)  ---------------------------------------


    POTLOK:  cpu time    1.9233: real time    1.9345
    SETDIJ:  cpu time    1.0916: real time    1.0942
     EDDAV:  cpu time 2837.1965: real time 2861.0681
       DOS:  cpu time    0.0003: real time    0.0003
    CHARGE:  cpu time    2.2306: real time    2.2360
    MIXING:  cpu time    0.0168: real time    0.0169
    --------------------------------------------
      LOOP:  cpu time 2842.4592: real time 2866.3500

 eigenvalue-minimisations  :  1856
 total energy-change (2. order) :-0.9384498E+00  (-0.5055561E-01)
 number of electron     622.0000002 magnetization      -1.1488573
 augmentation part       59.2951138 magnetization      -1.1532978

 Free energy of the ion-electron system (eV)
  ---------------------------------------------------
  alpha Z        PSCENC =       648.78857340
  Ewald energy   TEWEN  =     -6938.04979133
  -Hartree energ DENC   =    -30282.81226553
  -exchange      EXHF   =      1773.23882087
  -V(xc)+E(xc)   XCENC  =      1341.85463126
  PAW double counting   =     28290.74743992   -27744.57636987
  entropy T*S    EENTRO =        -0.00000000
  eigenvalues    EBANDS =     -6561.23031716
  atomic energy  EATOM  =     38271.68908261
  Solvation  Ediel_sol  =         0.00000000
  ---------------------------------------------------
  free energy    TOTEN  =     -1200.35019583 eV

  energy without entropy =    -1200.35019583  energy(sigma->0) =    -1200.35019583
  exchange ACFDT corr.  =        -0.00000000  see jH, gK, PRB 81, 115126


--------------------------------------------------------------------------------------------------------




--------------------------------------- Iteration      1(  14)  ---------------------------------------


    POTLOK:  cpu time    1.8860: real time    1.8967
    SETDIJ:  cpu time    1.1034: real time    1.1060
     EDDAV:  cpu time 2831.9122: real time 2849.0410
       DOS:  cpu time    0.0003: real time    0.0003
    CHARGE:  cpu time    2.2247: real time    2.2301
    MIXING:  cpu time    0.0084: real time    0.0084
    --------------------------------------------
      LOOP:  cpu time 2837.1350: real time 2854.2826

 eigenvalue-minimisations  :  1848
 total energy-change (2. order) : 0.7209336E-01  (-0.1542540E-01)
 number of electron     622.0000002 magnetization       0.6893144
 augmentation part       59.2919028 magnetization       0.6930810

 Free energy of the ion-electron system (eV)
  ---------------------------------------------------
  alpha Z        PSCENC =       648.78857340
  Ewald energy   TEWEN  =     -6938.04979133
  -Hartree energ DENC   =    -30288.97527003
  -exchange      EXHF   =      1772.75341102
  -V(xc)+E(xc)   XCENC  =      1342.00573981
[...]
      4.57686      7.96589     12.00114        -0.416401      0.120464     -0.060403
      2.34418      3.83072      2.31709         0.203924     -0.364882     -0.012279
     -2.05627      3.99130     12.28161         0.404904     -0.025819     -0.051842
      8.93783      7.93857      2.54287        -0.433971     -0.050444     -0.045346
      4.46775      7.59681      7.42957        -0.251741     -0.296933     -0.081002
     -2.10486     11.77500      7.01204         0.355624      0.313838      0.012220
     11.29962      4.01123      7.34116        -0.197416      0.392101      0.010157
      2.21754      4.15230      7.08574         0.262453      0.311939      0.124517
      9.09413      7.60874      7.45840         0.229269     -0.338540     -0.038562
      8.83835      0.09115      7.59459        -0.367816     -0.137837     -0.147044
     -0.04186      2.88050      1.89916         0.008372     -0.120688     -0.343595
      7.02454      8.82227     12.59367         0.287556      0.086576      0.372624
      4.41849     10.40001      1.63550         0.056228      0.034271     -0.162057
      2.39143      1.27745     12.85411        -0.024593     -0.000912      0.270773
     -4.49734     10.45922      1.89669        -0.041759      0.038274     -0.271906
     11.15994      1.44847     12.68068         0.146923     -0.050764      0.342804
      6.78933      6.59237      6.89036        -0.004287     -0.051065     -0.323739
      6.74354      1.01773      2.57217        -0.277328      0.150721      0.368537
      4.25924      2.49526      6.89337         0.123697      0.129694     -0.395128
      9.25011      5.36999      2.88968        -0.102902     -0.028782      0.350936
      9.31219      2.45297      6.69100        -0.112409      0.119708     -0.213962
      4.37762      5.39512      2.85990         0.086209     -0.067029      0.309870
      0.02571     10.61665     11.91954         0.018897     -0.048065     -0.387176
     -0.05239      5.06627      7.98333         0.008577      0.110585      0.177729
     -2.09865      6.57839     11.82308        -0.095592     -0.046977     -0.366947
      2.53714      9.33095      7.67109        -0.179615     -0.170574      0.385347
      2.50538      6.32884     11.80689        -0.100817      0.038845     -0.393008
     -2.54448      9.19996      8.03903        -0.049461     -0.344958      0.174994
     11.89215      3.05928     14.68331         0.158588     -0.291695     -0.002735
      8.56091      8.64648      0.03808        -0.098640      0.317285      0.006405
      5.19005      8.45046     14.75105         0.087979      0.383107      0.276023
      1.69551      3.15656     14.62800        -0.141015     -0.356887      0.006242
     -3.16518     11.83416      0.04728        -0.404776     -0.005542     -0.011639
      5.01127      6.97925      4.91695         0.178603     -0.297932      0.015065
      8.31317      0.59346      5.03155        -0.027706      0.380733      0.265510
      5.29466      1.28237      4.78939        -0.020071      0.060342      0.003000
      8.58902      6.94630      4.94560        -0.170127     -0.288885      0.004657
     10.47795      4.08438      4.86453        -0.411302     -0.110948      0.028763
      3.35630      3.82865      4.74605         0.268480      0.059938      0.008266
     -1.57694     11.25316      9.83937         0.036938     -0.378225      0.286414
      2.05367      4.84280      9.64404        -0.315391      0.229405     -0.004099
     -1.98268      4.81231      9.81671         0.309817      0.270568     -0.033335
      1.73057     10.62384      9.83987        -0.130233     -0.147994      0.025538
      3.26073      7.80779      9.75090        -0.164184      0.009098     -0.040631
     -3.62955      7.58501      9.90289         0.383378      0.160537     -0.017665
      9.95190      0.12948     14.66093         0.419743     -0.083156      0.019951
      8.38104      3.33694     11.23824        -1.030138      1.111130     -0.769681
     12.07627      2.70089      1.49094         0.022955      0.034024      0.021789
     -5.16664      9.00281     13.22528        -0.143714     -0.044266     -0.067994
      5.26742      9.03969      1.46710        -0.053695      0.009577     -0.000043
      1.54244      2.62557     13.09747         0.040692     -0.010603     -0.052269
      3.05154      0.01630      1.56095         0.019926     -0.055611      0.067241
     10.56318      0.00129     13.11826        -0.004826      0.010397      0.005971
     -3.64236     11.77787     13.25457         0.007182      0.022268     -0.059351
      3.70649     11.81924      1.44851        -0.085308     -0.059080      0.041174
      1.50052      2.76661      1.43513        -0.031882      0.052896      0.048351
     12.09263      2.68877     13.12183        -0.077631      0.016138     -0.049954
      8.35475      9.10917      1.58579         0.031656      0.004810      0.028624
      5.23702      6.55414      6.45497         0.017135      0.031838      0.060796
      5.27477      1.30306      6.41721        -0.072681     -0.039811      0.015800
      8.38849      6.64845      3.35458         0.062188      0.019918     -0.042038
      9.97882      3.87757      6.39064         0.038229     -0.050297      0.060552
      3.71947      3.95503      3.16547        -0.024899      0.034590     -0.045683
      9.91463      3.94685      3.32657         0.009891      0.006692     -0.037834
      3.63932      3.86720      6.33963        -0.020572     -0.057036      0.059941
      5.27278      1.31764      3.18241         0.157127     -0.054820     -0.004072
      8.35748      6.53829      6.49295        -0.026085      0.044326      0.069516
      5.23438      6.68240      3.33026        -0.072797      0.028603     -0.035963
      8.29654      1.19300      6.51345         0.053356     -0.038150      0.019519
     -1.50174     10.69729     11.33098         0.019762      0.051396     -0.010780
      1.55293      5.17541      8.13502        -0.009584     -0.045445     -0.043865
     -1.49792      5.16399     11.33277        -0.046576     -0.011063      0.039877
      1.55582     10.52342      8.23021        -0.065372      0.039042     -0.032662
      3.10944      7.77650     11.37206         0.120278     -0.000544      0.085280
     -3.23380      7.80880      8.33140        -0.000704      0.065689     -0.052320
      3.05924      7.88406      8.15844         0.049669      0.030759     -0.008332
     -3.00372      7.84818     11.39201        -0.017555     -0.039800      0.070279
     -1.64752      5.10529      8.26283        -0.020359     -0.028461     -0.019103
      1.56203     10.43833     11.43418         0.006324      0.043767      0.011111
      1.70204      5.04821     11.23140         0.037964      0.000985      0.040051
      5.34966      9.05782     13.14588         0.046546     -0.052059     -0.054776
      8.32824      1.12944      3.39250        -0.039357     -0.059452     -0.039167
     -1.60929     10.65250      8.20870         0.016242      0.004421     -0.039067
      7.53289      0.26643      0.52564        -0.006410     -0.015364      0.002851
     -0.22401      7.95255      7.07358         0.001438      0.009690     -0.033625
      6.67463      6.98959     11.24475        -0.021748      0.147704      0.086429
      6.71661      5.02155      9.84436         0.364165     -0.450788      0.229601
      7.67879      4.07992     10.67660         0.666099     -0.769122      0.495142
 -----------------------------------------------------------------------------------
    total drift:                                0.005831     -0.001369      0.006754


--------------------------------------------------------------------------------------------------------



  FREE ENERGIE OF THE ION-ELECTRON SYSTEM (eV)
  ---------------------------------------------------
  free  energy   TOTEN  =     -1200.43127337 eV

  energy  without entropy=    -1200.43127337  energy(sigma->0) =    -1200.43127337
 


--------------------------------------------------------------------------------------------------------


    POTLOK:  cpu time    2.9292: real time    2.9876


--------------------------------------------------------------------------------------------------------


 stress matrix after NEB project (eV)
      0.00000      0.00000      0.00000
      0.00000      0.00000      0.00000
      0.00000      0.00000      0.00000
  FORCES: max atom, RMS     1.699471    0.366029
  FORCE total and by dimension    3.908122    1.111130
  Stress total and by dimension    0.000000    0.000000
     LOOP+:  cpu time93553.0982: real time94120.8964
    4ORBIT:  cpu time    0.0000: real time    0.0000
 


 total charge     
 
# of ion       s       p       d       tot
------------------------------------------
    1        1.578   3.720   0.000   5.298
    2        1.576   3.729   0.000   5.305
    3        1.581   3.725   0.000   5.306
    4        1.578   3.720   0.000   5.298
    5        1.577   3.728   0.000   5.305
    6        1.579   3.690   0.000   5.269
    7        1.580   3.730   0.000   5.310
    8        1.579   3.694   0.000   5.274
    9        1.581   3.696   0.000   5.277
   10        1.576   3.723   0.000   5.300
   11        1.579   3.721   0.000   5.300
   12        1.581   3.713   0.000   5.294
   13        1.574   3.741   0.000   5.315
   14        1.578   3.684   0.000   5.263
   15        1.575   3.747   0.000   5.322
   16        1.579   3.663   0.000   5.242
   17        1.579   3.710   0.000   5.290
   18        1.579   3.690   0.000   5.269
   19        1.578   3.732   0.000   5.310
   20        1.581   3.725   0.000   5.306
   21        1.583   3.724   0.000   5.307
   22        1.579   3.724   0.000   5.302
   23        1.582   3.726   0.000   5.308
   24        1.580   3.727   0.000   5.307
   25        1.579   3.727   0.000   5.307
   26        1.583   3.685   0.000   5.268
   27        1.580   3.679   0.000   5.259
   28        1.580   3.727   0.000   5.307
   29        1.581   3.735   0.000   5.315
   30        1.581   3.725   0.000   5.306
   31        1.580   3.733   0.000   5.313
   32        1.583   3.692   0.000   5.275
   33        1.581   3.726   0.000   5.307
   34        1.580   3.725   0.000   5.306
   35        1.581   3.729   0.000   5.310
   36        1.581   3.722   0.000   5.303
   37        1.578   3.735   0.000   5.313
   38        1.579   3.668   0.000   5.247
   39        1.575   3.760   0.000   5.335
   40        1.575   3.746   0.000   5.321
   41        1.576   3.751   0.000   5.328
   42        1.579   3.730   0.000   5.309
   43        1.578   3.742   0.000   5.320
   44        1.578   3.663   0.000   5.242
   45        1.582   3.725   0.000   5.306
   46        1.578   3.731   0.000   5.309
   47        1.575   3.745   0.000   5.320
   48        1.577   3.740   0.000   5.318
   49        1.579   3.719   0.000   5.298
   50        1.574   3.745   0.000   5.320
   51        1.580   3.735   0.000   5.316
   52        1.582   3.715   0.000   5.297
   53        1.580   3.724   0.000   5.304
   54        1.580   3.701   0.000   5.281
   55        1.578   3.733   0.000   5.311
   56        1.578   3.727   0.000   5.305
   57        1.583   3.684   0.000   5.267
   58        1.578   3.718   0.000   5.296
   59        1.580   3.712   0.000   5.293
   60        1.579   3.731   0.000   5.310
   61        1.582   3.685   0.000   5.266
   62        1.573   3.750   0.000   5.323
   63        1.577   3.728   0.000   5.306
   64        1.581   3.714   0.000   5.295
   65        1.575   3.734   0.000   5.309
   66        1.582   3.681   0.000   5.262
   67        1.578   3.715   0.000   5.293
   68        1.581   3.723   0.000   5.305
   69        1.574   3.744   0.000   5.319
   70        1.575   3.747   0.000   5.322
   71        1.580   3.709   0.000   5.289
   72        1.580   3.682   0.000   5.262
   73        1.645   3.535   0.000   5.181
   74        0.637   0.994   0.000   1.631
   75        0.642   0.996   0.000   1.639
   76        0.645   1.008   0.000   1.653
   77        0.635   0.987   0.000   1.622
   78        0.639   0.998   0.000   1.637
   79        0.643   0.995   0.000   1.637
   80        0.637   0.993   0.000   1.629
   81        0.643   1.000   0.000   1.643
   82        0.636   0.989   0.000   1.625
   83        0.638   0.996   0.000   1.634
   84        0.639   1.000   0.000   1.639
   85        0.641   1.006   0.000   1.646
   86        0.643   0.996   0.000   1.639
   87        0.637   0.991   0.000   1.627
   88        0.639   0.995   0.000   1.634
   89        0.638   0.993   0.000   1.631
   90        0.641   0.998   0.000   1.639
   91        0.640   0.997   0.000   1.637
   92        0.644   1.001   0.000   1.644
   93        0.639   0.998   0.000   1.637
   94        0.638   0.995   0.000   1.633
   95        0.642   0.993   0.000   1.636
   96        0.641   0.993   0.000   1.634
   97        0.637   0.985   0.000   1.621
   98        0.640   1.003   0.000   1.643
   99        0.643   0.997   0.000   1.640
  100        0.642   0.995   0.000   1.636
  101        0.644   0.998   0.000   1.642
  102        0.640   0.995   0.000   1.635
  103        0.639   0.999   0.000   1.638
  104        0.640   0.996   0.000   1.637
  105        0.638   0.993   0.000   1.630
  106        0.636   0.991   0.000   1.627
  107        0.350   0.467   0.000   0.817
  108        0.350   0.469   0.000   0.818
  109        0.348   0.468   0.000   0.816
  110        0.088   0.060   9.259   9.406
  111        0.100   0.075   9.258   9.433
  112        0.175   0.111   9.180   9.466
  113        1.351   2.399   0.000   3.750
  114        0.938   1.653   0.000   2.591
--------------------------------------------------
tot        140.145 309.882  27.697 477.724
 


 magnetization (x)
 
# of ion       s       p       d       tot
------------------------------------------
    1        0.000   0.000   0.000   0.000
    2       -0.000  -0.000   0.000  -0.000
    3        0.000   0.000   0.000   0.000
    4       -0.000  -0.000   0.000  -0.000
    5        0.000   0.000   0.000   0.000
    6       -0.000  -0.000   0.000  -0.000
    7       -0.000   0.000   0.000   0.000
    8        0.000   0.000   0.000   0.000
    9       -0.000   0.000   0.000  -0.000
   10        0.000   0.000   0.000   0.000
   11        0.000  -0.000   0.000  -0.000
   12       -0.000   0.000   0.000   0.000
   13       -0.000  -0.000   0.000  -0.000
   14       -0.000  -0.000   0.000  -0.000
   15       -0.000  -0.000   0.000  -0.000
   16       -0.000   0.000   0.000  -0.000
   17       -0.000  -0.000   0.000  -0.000
   18       -0.000  -0.000   0.000  -0.000
   19        0.000   0.000   0.000   0.000
   20       -0.000  -0.000   0.000  -0.000
   21        0.000   0.000   0.000   0.000
   22       -0.000  -0.000   0.000  -0.000
   23        0.000   0.000   0.000   0.000
   24       -0.000  -0.000   0.000  -0.000
   25       -0.000  -0.000   0.000  -0.000
   26        0.000   0.000   0.000   0.000
   27        0.000  -0.000   0.000  -0.000
   28        0.000   0.000   0.000   0.000
   29       -0.000  -0.000   0.000  -0.000
   30        0.000   0.000   0.000   0.000
   31       -0.000  -0.000   0.000  -0.000
   32        0.000   0.000   0.000   0.000
   33       -0.000  -0.000   0.000  -0.000
   34        0.000   0.000   0.000   0.000
   35       -0.000   0.000   0.000  -0.000
   36       -0.000  -0.000   0.000  -0.000
   37        0.000   0.000   0.000   0.000
   38        0.000  -0.000   0.000  -0.000
   39        0.000   0.000   0.000   0.000
   40       -0.000  -0.000   0.000  -0.000
   41        0.000   0.000   0.000   0.000
   42       -0.000  -0.000   0.000  -0.000
   43       -0.000   0.000   0.000   0.000
   44        0.000   0.000   0.000   0.000
   45       -0.000   0.000   0.000   0.000
   46        0.000   0.000   0.000   0.000
   47        0.000   0.000   0.000   0.000
   48        0.000   0.000   0.000   0.000
   49       -0.000  -0.000   0.000  -0.000
   50        0.000  -0.000   0.000  -0.000
   51       -0.000  -0.000   0.000  -0.000
   52       -0.000  -0.000   0.000  -0.000
   53       -0.000  -0.000   0.000  -0.000
   54       -0.000  -0.000   0.000  -0.000
   55        0.000   0.000   0.000   0.000
   56        0.000   0.000   0.000   0.000
   57       -0.000  -0.000   0.000  -0.000
   58        0.000   0.000   0.000   0.000
   59        0.000  -0.000   0.000   0.000
   60        0.000   0.000   0.000   0.000
   61        0.000   0.000   0.000   0.000
   62       -0.000   0.000   0.000   0.000
   63        0.000   0.000   0.000   0.000
   64        0.000   0.000   0.000   0.000
   65        0.000   0.000   0.000   0.000
   66       -0.000  -0.000   0.000  -0.000
   67       -0.000  -0.000   0.000  -0.000
   68       -0.000  -0.000   0.000  -0.000
   69       -0.000  -0.000   0.000  -0.000
   70        0.000  -0.000   0.000  -0.000
   71       -0.000  -0.000   0.000  -0.000
   72        0.000   0.000   0.000   0.000
   73       -0.000  -0.000   0.000  -0.000
   74       -0.000  -0.000   0.000  -0.000
   75        0.000   0.000   0.000   0.000
   76       -0.000  -0.000   0.000  -0.000
   77        0.000   0.000   0.000   0.000
   78       -0.000  -0.000   0.000  -0.000
   79        0.000   0.000   0.000   0.000
   80        0.000   0.000   0.000   0.000
   81       -0.000  -0.000   0.000  -0.000
   82       -0.000  -0.000   0.000  -0.000
   83        0.000   0.000   0.000   0.000
   84       -0.000  -0.000   0.000  -0.000
   85       -0.000  -0.000   0.000  -0.000
   86       -0.000  -0.000   0.000  -0.000
   87       -0.000  -0.000   0.000  -0.000
   88       -0.000  -0.000   0.000  -0.000
   89       -0.000  -0.000   0.000  -0.000
   90       -0.000  -0.000   0.000  -0.000
   91       -0.000  -0.000   0.000  -0.000
   92       -0.000  -0.000   0.000  -0.000
   93       -0.000  -0.000   0.000  -0.000
   94       -0.000  -0.000   0.000  -0.000
   95        0.000  -0.000   0.000  -0.000
   96        0.000   0.000   0.000   0.000
   97        0.000   0.000   0.000   0.000
   98        0.000   0.000   0.000   0.000
   99        0.000   0.000   0.000   0.000
  100        0.000   0.000   0.000   0.000
  101        0.000   0.000   0.000   0.000
  102        0.000   0.000   0.000   0.000
  103        0.000   0.000   0.000   0.000
  104        0.000   0.000   0.000   0.000
  105        0.000   0.000   0.000   0.000
  106        0.000   0.000   0.000   0.000
  107       -0.000   0.000   0.000   0.000
  108       -0.000  -0.000   0.000  -0.000
  109        0.000   0.000   0.000   0.000
  110       -0.000  -0.000   0.000   0.000
  111       -0.000  -0.000   0.000   0.000
  112        0.000  -0.000  -0.000   0.000
  113       -0.000   0.000   0.000  -0.000
  114       -0.000   0.000   0.000   0.000
--------------------------------------------------
tot          0.000   0.000   0.000   0.000
 

 total amount of memory used by VASP MPI-rank0   233831. kBytes
=======================================================================

   base      :      30000. kBytes
   nonlr-proj:      31813. kBytes
   fftplans  :      69849. kBytes
   grid      :      62827. kBytes
   one-center:        902. kBytes
   HF        :         93. kBytes
   wavefun   :      38347. kBytes
 
  
  
 General timing and accounting informations for this job:
 ========================================================
  
                  Total CPU time used (sec):    93579.945
                            User time (sec):    84521.404
                          System time (sec):     9058.544
                         Elapsed time (sec):    94148.396
  
                   Maximum memory used (kb):      465740.
                   Average memory used (kb):           0.
  
                          Minor page faults:    794721135
                          Major page faults:            8
                 Voluntary context switches:         1548
