 vasp.5.4.4.18Apr17-6-g9f103f2a35 (build Dec 31 2018 11:41:54) complex          
  
 executed on             LinuxIFC date 2022.06.27  13:20:41
 running on   16 total cores
 distrk:  each k-point on   16 cores,    1 groups
 distr:  one band on NCORES_PER_BAND=   4 cores,    4 groups


--------------------------------------------------------------------------------------------------------


 INCAR:
 POTCAR:   PAW_PBE O 08Apr2002                    
 POTCAR:   PAW_PBE Si 05Jan2001                   
 POTCAR:   PAW_PBE Al 04Jan2001                   
 POTCAR:   PAW_PBE Ag 06Sep2000                   
 POTCAR:    PAW_PBE S 17Jan2003                   
 POTCAR:   PAW_PBE C 08Apr2002                    
 POTCAR:   PAW_PBE O 08Apr2002                    
   VRHFIN =O: s2p4                                                              
   LEXCH  = PE                                                                  
   EATOM  =   432.3788 eV,   31.7789 Ry                                         
                                                                                
   TITEL  = PAW_PBE O 08Apr2002                                                 
   LULTRA =        F    use ultrasoft PP ?                                      
   IUNSCR =        0    unscreen: 0-lin 1-nonlin 2-no                           
   RPACOR =     .000    partial core radius                                     
   POMASS =   16.000; ZVAL   =    6.000    mass and valenz                      
   RCORE  =    1.520    outmost cutoff radius                                   
   RWIGS  =    1.550; RWIGS  =     .820    wigner-seitz radius (au A)           
   ENMAX  =  400.000; ENMIN  =  300.000 eV                                      
   ICORE  =        2    local potential                                         
   LCOR   =        T    correct aug charges                                     
   LPAW   =        T    paw PP                                                  
   EAUG   =  605.392                                                            
   DEXC   =     .000                                                            
   RMAX   =    2.264    core radius for proj-oper                               
   RAUG   =    1.300    factor for augmentation sphere                          
   RDEP   =    1.550    radius for radial grids                                 
   QCUT   =   -5.520; QGAM   =   11.041    optimization parameters              
                                                                                
   Description                                                                  
     l     E      TYP  RCUT    TYP  RCUT                                        
     0   .000     23  1.200                                                     
     0  -.700     23  1.200                                                     
     1   .000     23  1.520                                                     
     1   .600     23  1.520                                                     
     2   .000      7  1.500                                                     
  local pseudopotential read in
  atomic valenz-charges read in
  non local Contribution for L=           0  read in
    real space projection operators read in
  non local Contribution for L=           0  read in
    real space projection operators read in
  non local Contribution for L=           1  read in
    real space projection operators read in
  non local Contribution for L=           1  read in
    real space projection operators read in
    PAW grid and wavefunctions read in
 
   number of l-projection  operators is LMAX  =           4
   number of lm-projection operators is LMMAX =           8
 
 POTCAR:   PAW_PBE Si 05Jan2001                   
   VRHFIN =Si: s2p2                                                             
   LEXCH  = PE                                                                  
   EATOM  =   103.0669 eV,    7.5752 Ry                                         
                                                                                
   TITEL  = PAW_PBE Si 05Jan2001                                                
   LULTRA =        F    use ultrasoft PP ?                                      
   IUNSCR =        1    unscreen: 0-lin 1-nonlin 2-no                           
   RPACOR =    1.500    partial core radius                                     
   POMASS =   28.085; ZVAL   =    4.000    mass and valenz                      
   RCORE  =    1.900    outmost cutoff radius                                   
   RWIGS  =    2.480; RWIGS  =    1.312    wigner-seitz radius (au A)           
   ENMAX  =  245.345; ENMIN  =  184.009 eV                                      
   ICORE  =        2    local potential                                         
   LCOR   =        T    correct aug charges                                     
   LPAW   =        T    paw PP                                                  
   EAUG   =  322.069                                                            
   DEXC   =    -.007                                                            
   RMAX   =    2.944    core radius for proj-oper                               
   RAUG   =    1.300    factor for augmentation sphere                          
   RDEP   =    1.993    radius for radial grids                                 
   QCUT   =   -4.246; QGAM   =    8.493    optimization parameters              
                                                                                
   Description                                                                  
     l     E      TYP  RCUT    TYP  RCUT                                        
     0   .000     23  1.900                                                     
     0   .000     23  1.900                                                     
     1   .000     23  1.900                                                     
     1   .000     23  1.900                                                     
     2   .000      7  1.900                                                     
  local pseudopotential read in
  partial core-charges read in
  atomic valenz-charges read in
  non local Contribution for L=           0  read in
    real space projection operators read in
  non local Contribution for L=           0  read in
    real space projection operators read in
  non local Contribution for L=           1  read in
    real space projection operators read in
  non local Contribution for L=           1  read in
    real space projection operators read in
    PAW grid and wavefunctions read in
 
   number of l-projection  operators is LMAX  =           4
   number of lm-projection operators is LMMAX =           8
 
 POTCAR:   PAW_PBE Al 04Jan2001                   
   VRHFIN =Al: s2p1                                                             
   LEXCH  = PE                                                                  
   EATOM  =    53.5387 eV,    3.9350 Ry                                         
                                                                                
   TITEL  = PAW_PBE Al 04Jan2001                                                
   LULTRA =        F    use ultrasoft PP ?                                      
   IUNSCR =        1    unscreen: 0-lin 1-nonlin 2-no                           
   RPACOR =    1.500    partial core radius                                     
   POMASS =   26.982; ZVAL   =    3.000    mass and valenz                      
   RCORE  =    1.900    outmost cutoff radius                                   
   RWIGS  =    2.650; RWIGS  =    1.402    wigner-seitz radius (au A)           
   ENMAX  =  240.300; ENMIN  =  180.225 eV                                      
   ICORE  =        2    local potential                                         
   LCOR   =        T    correct aug charges                                     
   LPAW   =        T    paw PP                                                  
   EAUG   =  291.052                                                            
   DEXC   =    -.041                                                            
   RMAX   =    2.974    core radius for proj-oper                               
   RAUG   =    1.300    factor for augmentation sphere                          
   RDEP   =    1.966    radius for radial grids                                 
   QCUT   =   -4.203; QGAM   =    8.405    optimization parameters              
                                                                                
   Description                                                                  
     l     E      TYP  RCUT    TYP  RCUT                                        
     0   .000     23  1.900                                                     
     0   .000     23  1.900                                                     
     1   .000     23  1.900                                                     
     1  1.000     23  1.900                                                     
     2   .000      7  1.900                                                     
  local pseudopotential read in
  partial core-charges read in
  atomic valenz-charges read in
  non local Contribution for L=           0  read in
    real space projection operators read in
  non local Contribution for L=           0  read in
    real space projection operators read in
  non local Contribution for L=           1  read in
    real space projection operators read in
  non local Contribution for L=           1  read in
    real space projection operators read in
    PAW grid and wavefunctions read in
 
   number of l-projection  operators is LMAX  =           4
   number of lm-projection operators is LMMAX =           8
 
 POTCAR:   PAW_PBE Ag 06Sep2000                   
   VRHFIN =Ag : s1 d10                                                          
   LEXCH  = PE                                                                  
   EATOM  =  1037.4134 eV,   76.2477 Ry                                         
                                                                                
   TITEL  = PAW_PBE Ag 06Sep2000                                                
   LULTRA =        F    use ultrasoft PP ?                                      
   IUNSCR =        1    unscreen: 0-lin 1-nonlin 2-no                           
   RPACOR =    2.000    partial core radius                                     
   POMASS =  107.868; ZVAL   =   11.000    mass and valenz                      
   RCORE  =    2.400    outmost cutoff radius                                   
   RWIGS  =    2.840; RWIGS  =    1.503    wigner-seitz radius (au A)           
   ENMAX  =  249.846; ENMIN  =  187.385 eV                                      
   RCLOC  =    1.962    cutoff for local pot                                    
   LCOR   =        T    correct aug charges                                     
   LPAW   =        T    paw PP                                                  
   EAUG   =  412.496                                                            
   DEXC   =    -.047                                                            
   RMAX   =    2.917    core radius for proj-oper                               
   RAUG   =    1.300    factor for augmentation sphere                          
   RDEP   =    2.416    radius for radial grids                                 
   QCUT   =   -4.285; QGAM   =    8.570    optimization parameters              
                                                                                
   Description                                                                  
     l     E      TYP  RCUT    TYP  RCUT                                        
     2   .000     23  2.400                                                     
     2   .000     23  2.400                                                     
     0   .000     23  2.400                                                     
     0   .000     23  2.400                                                     
     1  -.200     23  2.400                                                     
     1  1.500     23  2.400                                                     
     3   .000      7   .000                                                     
  local pseudopotential read in
  partial core-charges read in
  atomic valenz-charges read in
  non local Contribution for L=           2  read in
    real space projection operators read in
  non local Contribution for L=           2  read in
    real space projection operators read in
  non local Contribution for L=           0  read in
    real space projection operators read in
  non local Contribution for L=           0  read in
    real space projection operators read in
  non local Contribution for L=           1  read in
    real space projection operators read in
  non local Contribution for L=           1  read in
    real space projection operators read in
    PAW grid and wavefunctions read in
 
   number of l-projection  operators is LMAX  =           6
   number of lm-projection operators is LMMAX =          18
 
 POTCAR:    PAW_PBE S 17Jan2003                   
   VRHFIN =S : s2p4                                                             
   LEXCH  = PE                                                                  
   EATOM  =   276.8230 eV,   20.3459 Ry                                         
                                                                                
   TITEL  = PAW_PBE S 17Jan2003                                                 
   LULTRA =        F    use ultrasoft PP ?                                      
   IUNSCR =        1    unscreen: 0-lin 1-nonlin 2-no                           
   RPACOR =    1.500    partial core radius                                     
   POMASS =   32.066; ZVAL   =    6.000    mass and valenz                      
   RCORE  =    1.900    outmost cutoff radius                                   
   RWIGS  =    2.200; RWIGS  =    1.164    wigner-seitz radius (au A)           
   ENMAX  =  280.000; ENMIN  =  194.016 eV                                      
   ICORE  =        2    local potential                                         
   LCOR   =        T    correct aug charges                                     
   LPAW   =        T    paw PP                                                  
   EAUG   =  335.092                                                            
   DEXC   =     .000                                                            
   RMAX   =    2.867    core radius for proj-oper                               
   RAUG   =    1.300    factor for augmentation sphere                          
   RDEP   =    1.954    radius for radial grids                                 
   QCUT   =   -4.360; QGAM   =    8.721    optimization parameters              
                                                                                
   Description                                                                  
     l     E      TYP  RCUT    TYP  RCUT                                        
     0   .000     23  1.900                                                     
     0   .000     23  1.900                                                     
     1   .000     23  1.900                                                     
     1   .000     23  1.900                                                     
     2   .000     23  1.900                                                     
  local pseudopotential read in
  partial core-charges read in
  atomic valenz-charges read in
  non local Contribution for L=           0  read in
    real space projection operators read in
  non local Contribution for L=           0  read in
    real space projection operators read in
  non local Contribution for L=           1  read in
    real space projection operators read in
  non local Contribution for L=           1  read in
    real space projection operators read in
    PAW grid and wavefunctions read in
 
   number of l-projection  operators is LMAX  =           4
   number of lm-projection operators is LMMAX =           8
 
 POTCAR:   PAW_PBE C 08Apr2002                    
   VRHFIN =C: s2p2                                                              
   LEXCH  = PE                                                                  
   EATOM  =   147.1560 eV,   10.8157 Ry                                         
                                                                                
   TITEL  = PAW_PBE C 08Apr2002                                                 
   LULTRA =        F    use ultrasoft PP ?                                      
   IUNSCR =        0    unscreen: 0-lin 1-nonlin 2-no                           
   RPACOR =     .000    partial core radius                                     
   POMASS =   12.011; ZVAL   =    4.000    mass and valenz                      
   RCORE  =    1.500    outmost cutoff radius                                   
   RWIGS  =    1.630; RWIGS  =     .863    wigner-seitz radius (au A)           
   ENMAX  =  400.000; ENMIN  =  300.000 eV                                      
   ICORE  =        2    local potential                                         
   LCOR   =        T    correct aug charges                                     
   LPAW   =        T    paw PP                                                  
   EAUG   =  644.873                                                            
   DEXC   =     .000                                                            
   RMAX   =    2.266    core radius for proj-oper                               
   RAUG   =    1.300    factor for augmentation sphere                          
   RDEP   =    1.501    radius for radial grids                                 
   RDEPT  =    1.300    core radius for aug-charge                              
   QCUT   =   -5.516; QGAM   =   11.032    optimization parameters              
                                                                                
   Description                                                                  
     l     E      TYP  RCUT    TYP  RCUT                                        
     0   .000     23  1.200                                                     
     0   .000     23  1.200                                                     
     1   .000     23  1.500                                                     
     1  2.500     23  1.500                                                     
     2   .000      7  1.500                                                     
  local pseudopotential read in
  atomic valenz-charges read in
  non local Contribution for L=           0  read in
    real space projection operators read in
  non local Contribution for L=           0  read in
    real space projection operators read in
  non local Contribution for L=           1  read in
    real space projection operators read in
  non local Contribution for L=           1  read in
    real space projection operators read in
    PAW grid and wavefunctions read in
 
   number of l-projection  operators is LMAX  =           4
   number of lm-projection operators is LMMAX =           8
 
 Optimization of the real space projectors (new method)

 maximal supplied QI-value         = 24.76
 optimisation between [QCUT,QGAM] = [ 10.15, 20.30] = [ 28.85,115.39] Ry 
 Optimized for a Real-space Cutoff    1.51 Angstroem

   l    n(q)    QCUT    max X(q) W(low)/X(q) W(high)/X(q)  e(spline) 
   0      9    10.150     4.192    0.32E-04    0.13E-04    0.13E-06
   0      9    10.150     8.473    0.18E-03    0.20E-03    0.43E-06
   1      9    10.150     2.474    0.32E-04    0.33E-04    0.64E-07
   1      9    10.150     3.912    0.13E-03    0.16E-03    0.33E-06
 Optimization of the real space projectors (new method)

 maximal supplied QI-value         = 19.84
 optimisation between [QCUT,QGAM] = [ 10.12, 20.44] = [ 28.68,116.96] Ry 
 Optimized for a Real-space Cutoff    1.38 Angstroem

   l    n(q)    QCUT    max X(q) W(low)/X(q) W(high)/X(q)  e(spline) 
   0      8    10.119     8.708    0.16E-04    0.67E-05    0.60E-08
   0      8    10.119   106.241    0.56E-04    0.11E-03    0.54E-07
   1      8    10.119     5.901    0.16E-04    0.16E-05    0.22E-07
   1      8    10.119    73.241    0.22E-03    0.17E-03    0.18E-06
 Optimization of the real space projectors (new method)

 maximal supplied QI-value         = 19.84
 optimisation between [QCUT,QGAM] = [ 10.12, 20.44] = [ 28.68,116.96] Ry 
 Optimized for a Real-space Cutoff    1.26 Angstroem

   l    n(q)    QCUT    max X(q) W(low)/X(q) W(high)/X(q)  e(spline) 
   0      8    10.119    13.410    0.28E-04    0.17E-04    0.51E-08
   0      8    10.119   140.052    0.10E-03    0.16E-03    0.42E-07
   1      7    10.119     9.624    0.38E-04    0.42E-05    0.15E-07
   1      7    10.119    53.353    0.23E-03    0.17E-03    0.13E-06
 Optimization of the real space projectors (new method)

 maximal supplied QI-value         = 15.68
 optimisation between [QCUT,QGAM] = [ 10.20, 20.39] = [ 29.11,116.42] Ry 
 Optimized for a Real-space Cutoff    1.51 Angstroem

   l    n(q)    QCUT    max X(q) W(low)/X(q) W(high)/X(q)  e(spline) 
   2      8    10.195     3.831    0.11E-04    0.20E-04    0.48E-07
   2      8    10.195    20.184    0.23E-03    0.42E-03    0.20E-06
   0      9    10.195    16.770    0.13E-04    0.90E-05    0.63E-08
   0      9    10.195    80.708    0.19E-03    0.15E-03    0.44E-07
   1      9    10.195     6.696    0.12E-04    0.45E-04    0.30E-07
   1      9    10.195     8.973    0.12E-03    0.15E-03    0.13E-06
 Optimization of the real space projectors (new method)

 maximal supplied QI-value         = 19.84
 optimisation between [QCUT,QGAM] = [ 10.12, 20.44] = [ 28.68,116.96] Ry 
 Optimized for a Real-space Cutoff    1.42 Angstroem

   l    n(q)    QCUT    max X(q) W(low)/X(q) W(high)/X(q)  e(spline) 
   0      9    10.119     5.487    0.15E-04    0.47E-05    0.66E-08
   0      9    10.119    85.627    0.51E-04    0.92E-04    0.63E-07
   1      8    10.119     3.530    0.37E-05    0.76E-05    0.28E-07
   1      8    10.119    42.714    0.16E-03    0.16E-03    0.23E-06
 Optimization of the real space projectors (new method)

 maximal supplied QI-value         = 25.13
 optimisation between [QCUT,QGAM] = [ 10.05, 20.36] = [ 28.30,116.06] Ry 
 Optimized for a Real-space Cutoff    1.38 Angstroem

   l    n(q)    QCUT    max X(q) W(low)/X(q) W(high)/X(q)  e(spline) 
   0      8    10.053     5.582    0.33E-04    0.15E-04    0.75E-07
   0      8    10.053    69.432    0.23E-03    0.38E-03    0.25E-06
   1      8    10.053     2.780    0.76E-04    0.11E-03    0.15E-06
   1      8    10.053     4.549    0.19E-03    0.19E-03    0.27E-06
 PAW_PBE O 08Apr2002                    :
 energy of atom  1       EATOM= -432.3788
 kinetic energy error for atom=    0.1156 (will be added to EATOM!!)
 PAW_PBE Si 05Jan2001                   :
 energy of atom  2       EATOM= -103.0669
 kinetic energy error for atom=    0.0012 (will be added to EATOM!!)
 PAW_PBE Al 04Jan2001                   :
 energy of atom  3       EATOM=  -53.5387
 kinetic energy error for atom=    0.0005 (will be added to EATOM!!)
 PAW_PBE Ag 06Sep2000                   :
 energy of atom  4       EATOM=-1037.4134
 kinetic energy error for atom=    0.0091 (will be added to EATOM!!)
  PAW_PBE S 17Jan2003                   :
 energy of atom  5       EATOM= -276.8230
 kinetic energy error for atom=    0.0046 (will be added to EATOM!!)
 PAW_PBE C 08Apr2002                    :
 energy of atom  6       EATOM= -147.1560
 kinetic energy error for atom=    0.0288 (will be added to EATOM!!)
 
 
 POSCAR: O  C                                    
  positions in direct lattice
  velocities in cartesian coordinates
 exchange correlation table for  LEXCH =        8
   RHO(1)=    0.500       N(1)  =     2000
   RHO(2)=  100.500       N(2)  =     4000

 VTST: version 3.2, (02/03/18)

 CHAIN: initializing optimizer
 
 OPT: Using VASP Dynamics algorithm
 CHAIN: Read ICHAIN            0
 
 POSCAR: O  C                                    
  positions in direct lattice
  velocities in cartesian coordinates
 


--------------------------------------------------------------------------------------------------------


 ion  position               nearest neighbor table
   1  0.898  0.097  0.118-  74 1.63  81 1.63
   2  0.108  0.889  0.882-  80 1.62  75 1.62
   3  0.894  0.795  0.129-  84 1.62  76 1.64
   4  0.095  0.196  0.866-  77 1.63  83 1.63
   5  0.196  0.104  0.116-  78 1.63  82 1.63
   6  0.801  0.903  0.881-  79 1.59 107 1.73
   7  0.555  0.427  0.456-  85 1.62  91 1.63
   8  0.764  0.233  0.219-  90 1.59 108 1.73
   9  0.567  0.142  0.471-  95 1.64  86 1.65
  10  0.766  0.539  0.206-  94 1.63  87 1.63
  11  0.864  0.425  0.463-  93 1.63  88 1.64
  12  0.465  0.236  0.183-  89 1.63  92 1.64
  13  0.231  0.775  0.776- 103 1.61  96 1.64
  14  0.425  0.570  0.524-  97 1.66 102 1.67 111 2.55
  15  0.233  0.451  0.774-  98 1.62 106 1.62
  16  0.429  0.851  0.530-  99 1.62 109 1.79 111 2.28
  17  0.533  0.756  0.805- 100 1.63 105 1.64
  18  0.124  0.560  0.533- 104 1.65 101 1.68 111 2.45
  19  0.977  0.315  0.161-  74 1.61  90 1.63
  20  0.022  0.670  0.841- 103 1.62  75 1.63
  21  0.678  0.673  0.173-  94 1.61  76 1.63
  22  0.313  0.316  0.819- 106 1.62  77 1.63
  23  0.318  0.015  0.179-  78 1.61  92 1.63
  24  0.664  0.981  0.826- 105 1.62  79 1.63
  25  0.326  0.987  0.838-  80 1.61  96 1.63
  26  0.677  0.004  0.162-  81 1.60 108 1.74 110 2.54
  27  0.672  0.673  0.812- 100 1.61 107 1.77 112 2.39
  28  0.332  0.323  0.158-  82 1.62  89 1.62
  29  0.018  0.336  0.832-  98 1.61  83 1.62
  30  0.987  0.671  0.173-  84 1.62  87 1.62
  31  0.647  0.641  0.504- 102 1.61  85 1.62
  32  0.343  0.994  0.476-  86 1.59 109 1.71
  33  0.995  0.338  0.498- 104 1.61  88 1.63
  34  0.337  0.350  0.482-  97 1.61  91 1.63
  35  0.986  0.643  0.505- 101 1.62  93 1.62
  36  0.650  0.008  0.516-  99 1.61  95 1.64
  37  0.117  0.243  0.130-  82 1.61  74 1.62
  38  0.889  0.753  0.854-  75 1.62 107 1.77 112 2.34
  39  0.761  0.878  0.110-  81 1.60  76 1.61
  40  0.230  0.109  0.871-  77 1.61  80 1.62
  41  0.113  0.883  0.127-  78 1.61  84 1.61
  42  0.876  0.123  0.859-  83 1.62  79 1.63
  43  0.775  0.556  0.468-  85 1.61  93 1.61
  44  0.536  0.087  0.175-  92 1.62 108 1.79 110 2.31
  45  0.416  0.210  0.468-  91 1.60  86 1.64
  46  0.902  0.453  0.195-  87 1.61  90 1.63
  47  0.784  0.206  0.452-  88 1.60  95 1.63
  48  0.546  0.456  0.195-  89 1.61  94 1.62
  49  0.448  0.894  0.807- 105 1.62  96 1.64
  50  0.210  0.428  0.540-  97 1.62 104 1.62
  51  0.121  0.555  0.802-  98 1.61 103 1.62
  52  0.580  0.788  0.520- 102 1.61  99 1.64
  53  0.451  0.535  0.801- 106 1.62 100 1.63
  54  0.202  0.776  0.544- 101 1.58 109 1.74
  55  0.998  0.258  0.995-  83 1.62  74 1.63
  56  0.990  0.728  0.003-  75 1.62  84 1.63
  57  0.734  0.713  0.999-  76 1.60 107 1.72
  58  0.256  0.266  0.992-  77 1.63  82 1.63
  59  0.272  0.002  0.005-  80 1.63  78 1.64
  60  0.661  0.590  0.334-  85 1.61  94 1.63
  61  0.631  0.049  0.342-  95 1.60 108 1.73
  62  0.442  0.109  0.325-  92 1.61  86 1.63
  63  0.920  0.585  0.335-  93 1.62  87 1.63
  64  0.939  0.347  0.330-  88 1.62  90 1.64
  65  0.405  0.323  0.323-  91 1.62  89 1.63
  66  0.359  0.949  0.667-  96 1.59 109 1.74
  67  0.353  0.410  0.655-  97 1.62 106 1.64
  68  0.060  0.407  0.665- 104 1.62  98 1.63
  69  0.575  0.897  0.667- 105 1.61  99 1.62
  70  0.567  0.660  0.661- 102 1.61 100 1.63
  71  0.054  0.641  0.670- 101 1.64 103 1.64
  72  0.731  0.012  0.994-  79 1.66  81 1.67 110 2.50
  73  0.756  0.446  0.676- 114 1.19 112 2.28
  74  0.996  0.228  0.102-  19 1.61  37 1.62  55 1.63   1 1.63  82 3.10  90 3.10  81 3.13  83 3.13

  75  0.002  0.762  0.897-  38 1.62  56 1.62   2 1.62  20 1.63 103 3.06  84 3.12 107 3.16 112 3.38

  76  0.766  0.763  0.100-  57 1.60  39 1.61  21 1.63   3 1.64  94 3.01 107 3.08  84 3.09
  77  0.223  0.221  0.888-  40 1.61  58 1.63  22 1.63   4 1.63 106 3.07  82 3.11  83 3.12
  78  0.224  0.002  0.107-  41 1.61  23 1.61   5 1.63  59 1.64  92 3.04  80 3.07
  79  0.770  0.001  0.889-   6 1.59  42 1.63  24 1.63  72 1.66 105 3.07  81 3.09  83 3.10 107 3.24

  80  0.233  0.996  0.899-  25 1.61  40 1.62   2 1.62  59 1.63  96 3.07  78 3.07
  81  0.769  0.998  0.099-  26 1.60  39 1.60   1 1.63  72 1.67  79 3.09  74 3.13 108 3.16 110 3.17

  82  0.225  0.233  0.098-  37 1.61  28 1.62   5 1.63  58 1.63  89 3.06  74 3.10  77 3.11
  83  0.997  0.227  0.889-  42 1.62  55 1.62  29 1.62   4 1.63  98 3.06  79 3.10  77 3.12  74 3.13

  84  0.995  0.769  0.107-  41 1.61   3 1.62  30 1.62  56 1.63  87 3.04  76 3.09  75 3.12
  85  0.659  0.553  0.438-  43 1.61  60 1.61   7 1.62  31 1.62 102 3.07  93 3.11  94 3.13  91 3.13

  86  0.441  0.110  0.436-  32 1.59  62 1.63  45 1.64   9 1.65  95 3.02  91 3.04 109 3.07
  87  0.893  0.561  0.228-  46 1.61  30 1.62  63 1.63  10 1.63  84 3.04  90 3.10  93 3.15
  88  0.893  0.327  0.433-  47 1.60  64 1.62  33 1.63  11 1.64 104 3.03  90 3.06  93 3.11
  89  0.438  0.334  0.216-  48 1.61  28 1.62  65 1.63  12 1.63  82 3.06  92 3.06  94 3.13
  90  0.891  0.333  0.226-   8 1.59  19 1.63  46 1.63  64 1.64  88 3.06  87 3.10  74 3.10 108 3.24

  91  0.429  0.326  0.431-  45 1.60  65 1.62   7 1.63  34 1.63  86 3.04  97 3.05  85 3.13
  92  0.441  0.112  0.217-  62 1.61  44 1.62  23 1.63  12 1.64  78 3.04  89 3.06 108 3.07
  93  0.886  0.551  0.441-  43 1.61  63 1.62  35 1.62  11 1.63 101 3.05  88 3.11  85 3.11  87 3.15

  94  0.664  0.564  0.227-  21 1.61  48 1.62  60 1.63  10 1.63  76 3.01  89 3.13  85 3.13
  95  0.657  0.100  0.442-  61 1.60  47 1.63  36 1.64   9 1.64  86 3.02  99 3.04 108 3.11
  96  0.341  0.902  0.768-  66 1.59  25 1.63  13 1.64  49 1.64  80 3.07 105 3.08 109 3.13
  97  0.332  0.437  0.552-  34 1.61  50 1.62  67 1.62  14 1.66  91 3.05 102 3.10 106 3.11
  98  0.108  0.437  0.769-  29 1.61  51 1.61  15 1.62  68 1.63  83 3.06 103 3.08 104 3.09
  99  0.558  0.888  0.558-  36 1.61  16 1.62  69 1.62  52 1.64 102 3.04  95 3.04 109 3.17 111 3.34

 100  0.556  0.657  0.771-  27 1.61  70 1.63  53 1.63  17 1.63 106 3.07 105 3.08 107 3.12
 101  0.093  0.659  0.564-  54 1.58  35 1.62  71 1.64  18 1.68  93 3.05 103 3.07 104 3.14 111 3.26

 102  0.556  0.666  0.553-  70 1.61  31 1.61  52 1.61  14 1.67  99 3.04  85 3.07  97 3.10
 103  0.109  0.663  0.772-  13 1.61  51 1.62  20 1.62  71 1.64  75 3.06 101 3.07  98 3.08
 104  0.095  0.431  0.560-  33 1.61  68 1.62  50 1.62  18 1.65  88 3.03  98 3.09 101 3.14
 105  0.554  0.881  0.775-  69 1.61  49 1.62  24 1.62  17 1.64  79 3.07  96 3.08 100 3.08
 106  0.337  0.428  0.762-  22 1.62  53 1.62  15 1.62  67 1.64  77 3.07 100 3.07  97 3.11
 107  0.773  0.765  0.891-  57 1.72   6 1.73  27 1.77  38 1.77  76 3.08 112 3.10 100 3.12  75 3.16
                            79 3.24
 108  0.656  0.095  0.231-  61 1.73   8 1.73  26 1.74  44 1.79  92 3.07 110 3.10  95 3.11  81 3.16
                            90 3.24
 109  0.332  0.899  0.556-  32 1.71  54 1.74  66 1.74  16 1.79  86 3.07  96 3.13  99 3.17 111 3.24

 110  0.561  0.023  0.037-  44 2.31  72 2.50  26 2.54 108 3.10  81 3.17
 111  0.319  0.671  0.479-  16 2.28  18 2.45  14 2.55 109 3.24 101 3.26  99 3.34
 112  0.790  0.606  0.751-  73 2.28  38 2.34  27 2.39 107 3.10  75 3.38
 113  0.738  0.240  0.705- 114 1.54
 114  0.748  0.356  0.689-  73 1.19 113 1.54
 
  LATTYP: Found a hexagonal cell.
 ALAT       =    13.6750001907
 C/A-ratio  =     1.0798537472
  
  Lattice vectors:
  
 A1 = (  13.6750001907,   0.0000000000,   0.0000000000)
 A2 = (  -6.8375000954,  11.8428975619,   0.0000000000)
 A3 = (   0.0000000000,   0.0000000000,  14.7670001984)


Analysis of symmetry for initial positions (statically):
=====================================================================
 Subroutine PRICEL returns:
 Original cell was already a primitive cell.
 

 Routine SETGRP: Setting up the symmetry group for a 
 hexagonal supercell.


 Subroutine GETGRP returns: Found  1 space group operations
 (whereof  1 operations were pure point group operations)
 out of a pool of 24 trial point group operations.


The static configuration has the point symmetry C_1 .


Analysis of symmetry for dynamics (positions and initial velocities):
=====================================================================
 Subroutine PRICEL returns:
 Original cell was already a primitive cell.
 

 Routine SETGRP: Setting up the symmetry group for a 
 hexagonal supercell.


 Subroutine GETGRP returns: Found  1 space group operations
 (whereof  1 operations were pure point group operations)
 out of a pool of 24 trial point group operations.


The dynamic configuration has the point symmetry C_1 .


Analysis of structural, dynamic, and magnetic symmetry:
=====================================================================
 Subroutine PRICEL returns:
 Original cell was already a primitive cell.
 

 Routine SETGRP: Setting up the symmetry group for a 
 hexagonal supercell.


 Subroutine GETGRP returns: Found  1 space group operations
 (whereof  1 operations were pure point group operations)
 out of a pool of 24 trial point group operations.


The magnetic configuration has the point symmetry C_1 .


 Subroutine INISYM returns: Found  1 space group operations
 (whereof  1 operations are pure point group operations),
 and found     1 'primitive' translations

 
 
 KPOINTS: Gamma points only                       
  k-points in reciprocal lattice
Space group operators:
 irot       det(A)        alpha          n_x          n_y          n_z        tau_x        tau_y        tau_z
    1     1.000000     0.000000     1.000000     0.000000     0.000000     0.000000     0.000000     0.000000

 ----------------------------------------------------------------------------- 
|                                                                             |
|           W    W    AA    RRRRR   N    N  II  N    N   GGGG   !!!           |
|           W    W   A  A   R    R  NN   N  II  NN   N  G    G  !!!           |
|           W    W  A    A  R    R  N N  N  II  N N  N  G       !!!           |
|           W WW W  AAAAAA  RRRRR   N  N N  II  N  N N  G  GGG   !            |
|           WW  WW  A    A  R   R   N   NN  II  N   NN  G    G                |
|           W    W  A    A  R    R  N    N  II  N    N   GGGG   !!!           |
|                                                                             |
|      Your generating k-point grid is not commensurate to the symmetry       |
|      of the lattice.  This can cause   slow convergence with respect        |
|      to k-points for HF type calculations                                   |
|      suggested SOLUTIONS:                                                   |
|       ) if not already the case, use automatic k-point generation           |
|       ) shift your grid to Gamma (G) (e.g. required for hex or fcc lattice) |
|                                                                             |
 ----------------------------------------------------------------------------- 

 
 Subroutine IBZKPT_HF returns following result:
 ==============================================
 
 Found      1 k-points in 1st BZ
 the following      1 k-points will be used (e.g. in the exchange kernel)
 Following reciprocal coordinates:   # in IRBZ
  0.000000  0.000000  0.000000    1.00000000   1 t-inv F


--------------------------------------------------------------------------------------------------------




 Dimension of arrays:
   k-points           NKPTS =      1   k-points in BZ     NKDIM =      1   number of bands    NBANDS=    432
   number of dos      NEDOS =    301   number of ions     NIONS =    114
   non local maximal  LDIM  =      6   non local SUM 2l+1 LMDIM =     18
   total plane-waves  NPLWV = 777600
   max r-space proj   IRMAX =   4725   max aug-charges    IRDMAX= 128081
   dimension x,y,z NGX =    90 NGY =   90 NGZ =   96
   dimension x,y,z NGXF=   180 NGYF=  180 NGZF=  192
   support grid    NGXF=   360 NGYF=  360 NGZF=  384
   ions per type =              73  33   3   3   1   1
   NGX,Y,Z   is equivalent  to a cutoff of  10.94, 10.94, 10.81 a.u.
   NGXF,Y,Z  is equivalent  to a cutoff of  21.88, 21.88, 21.62 a.u.

 SYSTEM =  SiO2                                    
 POSCAR =  O  C                                    

 Startparameter for this run:
   NWRITE =      2    write-flag & timer
   PREC   = acc       normal or accurate (medium, high low for compatibility)
   ISTART =      0    job   : 0-new  1-cont  2-samecut
   ICHARG =      2    charge: 1-file 2-atom 10-const
   ISPIN  =      2    spin polarized calculation?
   LNONCOLLINEAR =      F non collinear calculations
   LSORBIT =      F    spin-orbit coupling
   INIWAV =      1    electr: 0-lowe 1-rand  2-diag
   LASPH  =      F    aspherical Exc in radial PAW
   METAGGA=      F    non-selfconsistent MetaGGA calc.

 Electronic Relaxation 1
   ENCUT  =  400.0 eV  29.40 Ry    5.42 a.u.  22.30 22.30 24.08*2*pi/ulx,y,z
   ENINI  =  400.0     initial cutoff
   ENAUG  =  644.9 eV  augmentation charge cutoff
   NELM   =    100;   NELMIN=  2; NELMDL= -5     # of ELM steps 
   EDIFF  = 0.1E-04   stopping-criterion for ELM
   LREAL  =      T    real-space projection
   NLSPLINE    = F    spline interpolate recip. space projectors
   LCOMPAT=      F    compatible to vasp.4.4
   GGA_COMPAT  = T    GGA compatible to vasp.4.4-vasp.4.6
   LMAXPAW     = -100 max onsite density
   LMAXMIX     =    2 max onsite mixed and CHGCAR
   VOSKOWN=      0    Vosko Wilk Nusair interpolation
   ROPT   =   -0.00025  -0.00025  -0.00025  -0.00025
   ROPT   =   -0.00025  -0.00025
 Ionic relaxation
   EDIFFG = 0.1E-03   stopping-criterion for IOM
   NSW    =      0    number of steps for IOM
   NBLOCK =      1;   KBLOCK =      1    inner block; outer block 
   IBRION =     -1    ionic relax: 0-MD 1-quasi-New 2-CG
   NFREE  =      0    steps in history (QN), initial steepest desc. (CG)
   ISIF   =      0    stress and relaxation
   IWAVPR =     10    prediction:  0-non 1-charg 2-wave 3-comb
   ISYM   =      3    0-nonsym 1-usesym 2-fastsym
   LCORR  =      T    Harris-Foulkes like correction to forces

   POTIM  = 0.5000    time-step for ionic-motion
   TEIN   =    0.0    initial temperature
   TEBEG  =    0.0;   TEEND  =   0.0 temperature during run
   SMASS  =  -3.00    Nose mass-parameter (am)
   estimated Nose-frequenzy (Omega)   =  0.10E-29 period in steps =****** mass=  -0.427E-26a.u.
   SCALEE = 1.0000    scale energy and forces
   NPACO  =    256;   APACO  = 16.0  distance and # of slots for P.C.
   PSTRESS=    0.0 pullay stress

  Mass of Ions in am
   POMASS =  16.00 28.09 26.98107.87 32.07 12.01
  Ionic Valenz
   ZVAL   =   6.00  4.00  3.00 11.00  6.00  4.00
  Atomic Wigner-Seitz radii
   RWIGS  =  -1.00 -1.00 -1.00 -1.00 -1.00 -1.00
  virtual crystal weights 
   VCA    =   1.00  1.00  1.00  1.00  1.00  1.00
   NELECT =     622.0000    total number of electrons
   NUPDOWN=      -1.0000    fix difference up-down

 DOS related values:
   EMIN   =  10.00;   EMAX   =-10.00  energy-range for DOS
   EFERMI =   0.00
   ISMEAR =     0;   SIGMA  =   0.05  broadening in eV -4-tet -1-fermi 0-gaus

 Electronic relaxation 2 (details)
   IALGO  =     38    algorithm
   LDIAG  =      T    sub-space diagonalisation (order eigenvalues)
   LSUBROT=      F    optimize rotation matrix (better conditioning)
   TURBO    =      0    0=normal 1=particle mesh
   IRESTART =      0    0=no restart 2=restart with 2 vectors
   NREBOOT  =      0    no. of reboots
   NMIN     =      0    reboot dimension
   EREF     =   0.00    reference energy to select bands
   IMIX   =      1    mixing-type and parameters
     AMIX     =   0.40;   BMIX     =  1.00
     AMIX_MAG =   1.60;   BMIX_MAG =  1.00
     AMIN     =   0.10
     WC   =   100.;   INIMIX=   1;  MIXPRE=   1;  MAXMIX= -45

 Intra band minimization:
   WEIMIN = 0.0000     energy-eigenvalue tresh-hold
   EBREAK =  0.58E-08  absolut break condition
   DEPER  =   0.30     relativ break condition  

   TIME   =   0.40     timestep for ELM

  volume/ion in A,a.u.               =      20.98       141.57
  Fermi-wavevector in a.u.,A,eV,Ry     =   1.044991  1.974746 14.857638  1.092006
  Thomas-Fermi vector in A             =   2.179767
 
 Write flags
   LWAVE        =      F    write WAVECAR
   LDOWNSAMPLE  =      F    k-point downsampling of WAVECAR
   LCHARG       =      F    write CHGCAR
   LVTOT        =      F    write LOCPOT, total local potential
   LVHAR        =      F    write LOCPOT, Hartree potential only
   LELF         =      F    write electronic localiz. function (ELF)
   LORBIT       =     11    0 simple, 1 ext, 2 COOP (PROOUT), +10 PAW based schemes


 Dipole corrections
   LMONO  =      F    monopole corrections only (constant potential shift)
   LDIPOL =      F    correct potential (dipole corrections)
   IDIPOL =      0    1-x, 2-y, 3-z, 4-all directions 
   EPSILON=  1.0000000 bulk dielectric constant

 Exchange correlation treatment:
   GGA     =    PE    GGA type
   LEXCH   =     8    internal setting for exchange type
   VOSKOWN=      0    Vosko Wilk Nusair interpolation
   EXXOEP  =     0    0=HF, 1=EXX-LHF (local Hartree Fock) 2=EXX OEP
   LHFCALC =     T    Hartree Fock is set to
   LSYMGRAD=     F    symmetrize gradient (conserves proper symmetry)
   PRECFOCK=normal    Normal, Fast or Accurate (Low or Medium for compatibility)
   LRHFCALC=     F    long range Hartree Fock
   LRSCOR  =     F    long range correlation only (use DFT for short range part)
   LTHOMAS =     F    Thomas Fermi screening in HF
   LMODELHF=     F    short range full HF, long range fraction AEXX
   ENCUT4O =  -1.0   cutoff for four orbital integrals eV
   LMAXFOCK=     4    L truncation for augmentation on plane wave grid
   LMAXFOCKAE=  -1    L truncation for all-electron charge restoration on plane wave grid
   NMAXFOCKAE=   1    number of basis functions for all-electron charge restoration
   LFOCKAEDFT=     F  apply the AE augmentation even for DFT
   NKREDX  =     1    reduce k-point grid by
   NKREDY  =     1    reduce k-point grid by
   NKREDZ  =     1    reduce k-point grid by
   SHIFTRED=     F    shift reduced grid of Gamma
   HFKIDENT=     F    idential grid for each k-point
   ODDONLY =     F    use only odd q-grid points
   EVENONLY=     F    use only even q-grid points
   HFALPHA =   -1.0000 decay constant for conv. correction
   MCALPHA =    0.0000 extent of test-charge in conv. correction in multipole expansion
   AEXX    =    0.2500 exact exchange contribution
   HFSCREEN=    0.2000 screening length (either q_TF or 0.3 A-1)
   HFSCREENC=   0.2000 screening length for correlation (either q_TF or 0.3 A-1)
   HFRCUT  =    0.0000 spherical cutoff for potential kernel
   ALDAX   =    0.7500 LDA exchange part
   AGGAX   =    0.7500 GGA exchange part
   ALDAC   =    1.0000 LDA correlation
   AGGAC   =    1.0000 GGA correlation
   ENCUTFOCK=  -1.0 apply spherical cutoff to Coloumb kernel
   NBANDSGWLOW=     1    first orbital included in HF term
   NBLOCK_FOCK=    64    blocking factor in FOCK_ACC
 Linear response parameters
   LEPSILON=     F    determine dielectric tensor
   LRPA    =     F    only Hartree local field effects (RPA)
   LNABLA  =     F    use nabla operator in PAW spheres
   LVEL    =     F    velocity operator in full k-point grid
   LINTERFAST=   F  fast interpolation
   KINTER  =     0    interpolate to denser k-point grid
   CSHIFT  =0.1000    complex shift for real part using Kramers Kronig
   OMEGAMAX=  -1.0    maximum frequency
   DEG_THRESHOLD= 0.2000000E-02 threshold for treating states as degnerate
   RTIME   =   -0.100 relaxation time in fs
  (WPLASMAI=    0.000 imaginary part of plasma frequency in eV, 0.658/RTIME)
   DFIELD  = 0.0000000 0.0000000 0.0000000 field for delta impulse in time
 
 Orbital magnetization related:
   ORBITALMAG=     F  switch on orbital magnetization
   LCHIMAG   =     F  perturbation theory with respect to B field
   DQ        =  0.001000  dq finite difference perturbation B field
   LLRAUG    =     F  two centre corrections for induced B field



--------------------------------------------------------------------------------------------------------


 Static calculation
 charge density and potential will be updated during run
 spin polarized calculation
 Variant of blocked Davidson
 Davidson routine will perform the subspace rotation
 perform sub-space diagonalisation
    after iterative eigenvector-optimisation
 Kerker-like  mixing scheme
 using additional bands          121
 real space projection scheme for non local part
 use partial core corrections
 calculate Harris-corrections to forces 
   (improved forces if not selfconsistent)
 use gradient corrections 
 use of overlap-Matrix (Vanderbilt PP)
 Gauss-broadening in eV      SIGMA  =   0.05


--------------------------------------------------------------------------------------------------------


  energy-cutoff  :      400.00
  volume of cell :     2391.54
      direct lattice vectors                 reciprocal lattice vectors
    13.675000191  0.000000000  0.000000000     0.073126142  0.042219398  0.000000000
    -6.837500095 11.842897562  0.000000000     0.000000000  0.084438795  0.000000000
     0.000000000  0.000000000 14.767000198     0.000000000  0.000000000  0.067718561

  length of vectors
    13.675000191 13.675000191 14.767000198     0.084438795  0.084438795  0.067718561


 
 k-points in units of 2pi/SCALE and weight: Gamma points only                       
   0.00000000  0.00000000  0.00000000       1.000
 
 k-points in reciprocal lattice and weights: Gamma points only                       
   0.00000000  0.00000000  0.00000000       1.000
 
 position of ions in fractional coordinates (direct lattice) 
   0.89807137  0.09713085  0.11820210
   0.10810994  0.88883305  0.88198057
   0.89410236  0.79490389  0.12854849
   0.09528555  0.19555140  0.86632570
   0.19588213  0.10364917  0.11550957
   0.80104157  0.90315923  0.88131314
   0.55497828  0.42697560  0.45632980
   0.76355424  0.23346451  0.21945449
   0.56739344  0.14223093  0.47120833
   0.76632005  0.53877777  0.20610107
   0.86371971  0.42514893  0.46262644
   0.46500389  0.23633157  0.18343264
   0.23147616  0.77514990  0.77632777
   0.42514016  0.56974222  0.52405778
   0.23282941  0.45086549  0.77397897
   0.42910445  0.85121184  0.53024421
   0.53255187  0.75648721  0.80504318
   0.12406829  0.55999386  0.53343221
   0.97680104  0.31543504  0.16098618
   0.02155012  0.66950398  0.84140209
   0.67840935  0.67334379  0.17324701
   0.31298951  0.31628165  0.81854352
   0.31799408  0.01539902  0.17940151
   0.66449569  0.98099946  0.82581253
   0.32640882  0.98654054  0.83842508
   0.67697958  0.00393881  0.16202272
   0.67237156  0.67258618  0.81218125
   0.33191797  0.32313650  0.15806491
   0.01803569  0.33638711  0.83190245
   0.98725238  0.67061137  0.17339450
   0.64744727  0.64139464  0.50419007
   0.34345501  0.99408969  0.47554529
   0.99480948  0.33784754  0.49830718
   0.33714346  0.35010832  0.48168893
   0.98632025  0.64289681  0.50470030
   0.65015612  0.00808826  0.51555530
   0.11729134  0.24260204  0.12956494
   0.88920371  0.75294490  0.85423055
   0.76059599  0.87787653  0.11037326
   0.22993272  0.10860911  0.87116497
   0.11290029  0.88266922  0.12731460
   0.87588316  0.12270123  0.85945254
   0.77450220  0.55626230  0.46779812
   0.53552783  0.08652226  0.17513969
   0.41621831  0.21035113  0.46806338
   0.90209740  0.45311512  0.19549043
   0.78447313  0.20643107  0.45229046
   0.54640599  0.45620284  0.19535031
   0.44818156  0.89358029  0.80744699
   0.20996119  0.42837311  0.53976334
   0.12075358  0.55497988  0.80167656
   0.57977423  0.78807330  0.52000377
   0.45108830  0.53488499  0.80073270
   0.20243561  0.77638967  0.54437833
   0.99823437  0.25832219  0.99499707
   0.98992786  0.72834431  0.00302442
   0.73424367  0.71263305  0.99949446
   0.25609668  0.26616206  0.99167254
   0.27151929  0.00240689  0.00466972
   0.66140145  0.58952397  0.33430230
   0.63109948  0.04852303  0.34166712
   0.44170451  0.10916937  0.32544427
   0.91967184  0.58452354  0.33548166
   0.93917014  0.34657874  0.33018084
   0.40544475  0.32254892  0.32267017
   0.35879873  0.94917628  0.66710671
   0.35264798  0.40992096  0.65454007
   0.05984996  0.40668620  0.66547825
   0.57532041  0.89703174  0.66711557
   0.56743155  0.65972805  0.66097406
   0.05406906  0.64081470  0.67043409
   0.73127454  0.01192919  0.99368046
   0.75563733  0.44586761  0.67649045
   0.99606317  0.22767756  0.10167221
   0.00241303  0.76190487  0.89662300
   0.76597646  0.76322380  0.09968610
   0.22299053  0.22148361  0.88796086
   0.22399437  0.00176255  0.10658453
   0.77042472  0.00077274  0.88934277
   0.23321257  0.99597963  0.89909942
   0.76853907  0.99786202  0.09870165
   0.22544353  0.23317403  0.09828916
   0.99730505  0.22665775  0.88939446
   0.99484522  0.76893705  0.10744750
   0.65947485  0.55291160  0.43849241
   0.44078079  0.11025704  0.43565379
   0.89274030  0.56075722  0.22765487
   0.89322259  0.32739459  0.43343233
   0.43787257  0.33413777  0.21570671
   0.89104225  0.33343941  0.22620551
   0.42881443  0.32619764  0.43052571
   0.44071724  0.11188646  0.21669607
   0.88630646  0.55129658  0.44057926
   0.66421108  0.56435418  0.22681774
   0.65655789  0.10041687  0.44161189
   0.34079261  0.90247884  0.76817555
   0.33166313  0.43730127  0.55170875
   0.10836510  0.43690234  0.76860066
   0.55803872  0.88842596  0.55799235
   0.55642449  0.65674128  0.77072821
   0.09278076  0.65928328  0.56409418
   0.55646426  0.66568170  0.55300761
   0.10948350  0.66280927  0.77180659
   0.09489149  0.43098347  0.55988090
   0.55446666  0.88101219  0.77503585
   0.33712104  0.42755883  0.76218679
   0.77294416  0.76540978  0.89129041
   0.65568633  0.09508923  0.23095779
   0.33188942  0.89912332  0.55648614
   0.56061837  0.02340700  0.03670137
   0.31892811  0.67127411  0.47924415
   0.78993441  0.60568479  0.75147100
   0.73755086  0.24007658  0.70513880
   0.74758676  0.35627807  0.68936340
 
 position of ions in cartesian coordinates  (Angst):
  11.61699398  1.15031074  1.74549045
  -4.59899268 10.52635876 13.02420718
   6.79169452  9.41396537  1.89827551
  -0.03405275  2.31589516 12.79303182
   1.96998694  1.22750650  1.70572980
   4.77889230 10.69602225 13.01435133
   4.66988230  5.05662833  6.73862231
   8.84529076  2.76489627  3.24068443
   6.78660142  1.68442633  6.95833345
   6.79553374  6.38068998  3.04349452
   8.90441127  5.03499524  6.83160473
   4.74301117  2.79885061  2.70874980
  -2.13465106  9.18002092 11.46403236
   1.91817933  6.74739877  7.73876132
   0.10114939  5.33955378 11.42934767
   0.04784237 10.08081463  7.83011632
   2.11016557  8.95900051 11.88807276
  -2.13232423  6.63194992  7.87719352
  11.20096728  3.73566483  2.37728296
  -4.28303560  7.92886707 12.42498477
   4.67325971  7.97434154  2.55833867
   2.11755576  3.74569124 12.08743237
   4.24327825  0.18236905  2.64922215
   2.37939479 11.61787614 12.19477386
  -2.28183039 11.68349858 12.38102327
   9.23076420  0.04664695  2.39258950
   4.59587315  7.96536929 11.99348069
   2.32953253  3.82687244  2.33414462
  -2.05340883  3.98379810 12.28470359
   8.91537114  7.94198175  2.56051669
   4.46830556  7.59597102  7.44537490
  -2.10034101 11.77290240  7.02237744
  11.29398729  4.00109377  7.35850220
   2.21657126  4.14629693  7.11310046
   9.09212259  7.61376108  7.45290949
   8.83558163  0.09578848  7.61320525
  -0.05483232  2.87311109  1.91328551
   7.01160012  8.91704927 12.61442275
   4.39866941 10.39660184  1.62988200
   2.40171518  1.28624656 12.86449332
  -4.49133942 10.45336113  1.88005469
  11.13873268  1.45313813 12.69153583
   6.78787419  6.58775740  6.90797486
   6.73174723  1.02467423  2.58628789
   4.25350963  2.49116690  6.91189196
   9.23800748  5.36619595  2.88680725
   9.31619772  2.44474198  6.67897326
   4.35281503  5.40276350  2.88473810
   0.01902761 10.58257985 11.92356984
  -0.05778194  5.07317887  7.97068538
  -2.14336981  6.57256988 11.83835797
   2.53996145  9.33307136  7.67889574
   2.51135645  6.33458819 11.82441989
  -2.54025740  9.19470329  8.03883489
  11.88457722  3.05928318 14.69312186
   8.55720937  8.62570703  0.04466162
   5.16815380  8.43964017 14.75953491
   1.68223897  3.15213007 14.64402866
   3.69656921  0.02850457  0.06895771
   5.01379471  6.98167201  4.93664209
   8.29850928  0.57465324  5.04539849
   5.29386370  1.29288168  4.80583553
   8.57983282  6.92245240  4.95405774
  10.47341974  4.10449647  4.87578051
   3.33902869  3.81991386  4.76487043
  -1.58342021 11.24099747  9.85116491
   2.01962667  4.85465188  9.66559341
  -1.96226878  4.81634306  9.82711751
   1.73405221 10.62345495  9.85129577
   3.24873599  7.81309176  9.76060401
  -3.64217615  7.58910288  9.90030027
   9.91861363  0.14127620 14.67367959
   7.28472076  5.28036441  9.98973455
  12.06441870  2.69636206  1.50139357
  -5.17652647  9.02316128 13.24043202
   5.25618543  9.03878129  1.47206469
   1.53500133  2.62300768 13.11251817
   3.05107161  0.02087370  1.57393382
  10.53027463  0.00915147 13.13292482
  -3.62082886 11.79528474 13.27700138
   3.68689026 11.81757770  1.45752725
   1.48861289  2.76145621  1.45143600
  12.08837433  2.68428451 13.13368815
   8.34690144  9.10644268  1.58667726
   5.23778557  6.54807549  6.47521748
   5.27379483  1.30576281  6.43329957
   8.37404614  6.64099037  3.36177947
   9.97625856  3.87730064  6.40049525
   3.70324038  3.95715941  3.18534110
   9.90511100  3.94888875  3.34037687
   3.63366111  3.86312519  6.35757327
   5.26178459  1.32505992  3.19995088
   8.35075063  6.52894897  6.50603408
   5.22431490  6.68358878  3.34941758
   8.29182888  1.18922675  6.52128292
  -1.51036016 10.68796442 11.34364844
   1.54544594  5.17891415  8.14708328
  -1.50542702  5.17418963 11.34992613
   1.55656703 10.52153768  8.23987316
   3.11863652  7.77771966 11.38134370
  -3.23907257  7.80782431  8.32997891
   3.05805022  7.88360018  8.16626344
  -3.03477161  7.84958227 11.39726806
  -1.64920840  5.10409311  8.26776129
   1.55841082 10.43373707 11.44495461
   1.68669678  5.06353547 11.25521249
   5.33652207  9.06466958 13.16168567
   8.31633807  1.12613197  3.41055371
  -1.60916789 10.64822536  8.21763092
   7.50641100  0.27720666  0.54196920
  -0.22849490  7.94983054  7.07699852
   6.66098337  7.17306295 11.09697243
   8.44448454  2.84320236 10.41278474
   7.78719777  4.21936473 10.17982942
 


--------------------------------------------------------------------------------------------------------


 k-point  1 :   0.0000 0.0000 0.0000  plane waves:   43405

 maximum and minimum number of plane-waves per node :     10852    10850

 maximum number of plane-waves:     43405
 maximum index in each direction: 
   IXMAX=   22   IYMAX=   22   IZMAX=   24
   IXMIN=  -22   IYMIN=  -22   IZMIN=  -24


 real space projection operators:
  total allocation   :      30726.72 KBytes
  max/ min on nodes  :       7846.38       7512.44


 parallel 3D FFT for wavefunctions:
    minimum data exchange during FFTs selected (reduces bandwidth)
 parallel 3D FFT for charge:
    minimum data exchange during FFTs selected (reduces bandwidth)


 FFT grid for exact exchange (Hartree Fock) 
  NGX = 70; NGY = 70; NGZ = 80

 
 Radii for the augmentation spheres in the non-local exchange
 for species   1 augmentation radius   0.820 (default was   0.722)
       energy cutoff for augmentation   1600.0
 for species   2 augmentation radius   1.055 (default was   0.989)
       energy cutoff for augmentation   1600.0
 for species   3 augmentation radius   1.041 (default was   1.041)
       energy cutoff for augmentation   1600.0
 for species   4 augmentation radius   1.279 (default was   1.125)
       energy cutoff for augmentation   1600.0
 for species   5 augmentation radius   1.034 (default was   0.970)
       energy cutoff for augmentation   1600.0
 for species   6 augmentation radius   0.795 (default was   0.699)
       energy cutoff for augmentation   1600.0

 real space projection operators:
  total allocation   :       4887.70 KBytes
  max/ min on nodes  :       1249.16       1194.61

 Maximum index for augmentation-charges in exchange          373
  SETUP_FOCK is finished

 total amount of memory used by VASP MPI-rank0   225221. kBytes
=======================================================================

   base      :      30000. kBytes
   nonlr-proj:      23203. kBytes
   fftplans  :      69849. kBytes
   grid      :      62827. kBytes
   one-center:        902. kBytes
   HF        :         93. kBytes
   wavefun   :      38347. kBytes
 
     INWAV:  cpu time    0.0001: real time    0.0013
 initial charge density was supplied:
 charge density of overlapping atoms calculated
 number of electron     622.0000000 magnetization     114.0000000
 keeping initial charge density in first step


--------------------------------------------------------------------------------------------------------


 Maximum index for non-local projection operator         1313
 Maximum index for augmentation-charges         7873 (set IRDMAX)


--------------------------------------------------------------------------------------------------------


 First call to EWALD:  gamma=   0.133
 Maximum number of real-space cells 3x 3x 3
 Maximum number of reciprocal cells 3x 3x 3

    FEWALD:  cpu time    0.0067: real time    0.0067


--------------------------------------- Iteration      1(   1)  ---------------------------------------


    POTLOK:  cpu time    1.6951: real time    1.7265
    SETDIJ:  cpu time    0.6848: real time    0.6865
     EDDAV:  cpu time   15.2900: real time   15.3318
       DOS:  cpu time    0.0007: real time    0.0007
    --------------------------------------------
      LOOP:  cpu time   17.6706: real time   17.7454

 eigenvalue-minimisations  :  1744
 total energy-change (2. order) : 0.5417195E+04  (-0.2487703E+05)
 number of electron     622.0000000 magnetization     114.0000000
 augmentation part      622.0000000 magnetization     114.0000000

 Free energy of the ion-electron system (eV)
  ---------------------------------------------------
  alpha Z        PSCENC =       648.78857340
  Ewald energy   TEWEN  =     -6771.26375380
  -Hartree energ DENC   =    -28493.20691749
  -exchange      EXHF   =         0.00000000
  -V(xc)+E(xc)   XCENC  =      1266.25658753
  PAW double counting   =     22212.25602133   -21646.53644264
  entropy T*S    EENTRO =        -0.02058571
  eigenvalues    EBANDS =       -70.76753123
  atomic energy  EATOM  =     38271.68908261
  Solvation  Ediel_sol  =         0.00000000
  ---------------------------------------------------
  free energy    TOTEN  =      5417.19503401 eV

  energy without entropy =     5417.21561972  energy(sigma->0) =     5417.20532686
  exchange ACFDT corr.  =         0.00000000  see jH, gK, PRB 81, 115126


--------------------------------------------------------------------------------------------------------




--------------------------------------- Iteration      1(   2)  ---------------------------------------


     EDDAV:  cpu time   18.0504: real time   18.1090
       DOS:  cpu time    0.0003: real time    0.0003
    --------------------------------------------
      LOOP:  cpu time   18.0507: real time   18.1093

 eigenvalue-minimisations  :  2144
 total energy-change (2. order) :-0.4367398E+04  (-0.4106589E+04)
 number of electron     622.0000000 magnetization     114.0000000
 augmentation part      622.0000000 magnetization     114.0000000

 Free energy of the ion-electron system (eV)
  ---------------------------------------------------
  alpha Z        PSCENC =       648.78857340
  Ewald energy   TEWEN  =     -6771.26375380
  -Hartree energ DENC   =    -28493.20691749
  -exchange      EXHF   =         0.00000000
  -V(xc)+E(xc)   XCENC  =      1266.25658753
  PAW double counting   =     22212.25602133   -21646.53644264
  entropy T*S    EENTRO =        -0.00000000
  eigenvalues    EBANDS =     -4438.18639717
  atomic energy  EATOM  =     38271.68908261
  Solvation  Ediel_sol  =         0.00000000
  ---------------------------------------------------
  free energy    TOTEN  =      1049.79675378 eV

  energy without entropy =     1049.79675378  energy(sigma->0) =     1049.79675378
  exchange ACFDT corr.  =         0.00000000  see jH, gK, PRB 81, 115126


--------------------------------------------------------------------------------------------------------




--------------------------------------- Iteration      1(   3)  ---------------------------------------


     EDDAV:  cpu time   17.4624: real time   17.5299
       DOS:  cpu time    0.0003: real time    0.0003
    --------------------------------------------
      LOOP:  cpu time   17.4627: real time   17.5302

 eigenvalue-minimisations  :  2064
 total energy-change (2. order) :-0.5068423E+03  (-0.5026083E+03)
 number of electron     622.0000000 magnetization     114.0000000
 augmentation part      622.0000000 magnetization     114.0000000

 Free energy of the ion-electron system (eV)
  ---------------------------------------------------
  alpha Z        PSCENC =       648.78857340
  Ewald energy   TEWEN  =     -6771.26375380
  -Hartree energ DENC   =    -28493.20691749
  -exchange      EXHF   =         0.00000000
  -V(xc)+E(xc)   XCENC  =      1266.25658753
  PAW double counting   =     22212.25602133   -21646.53644264
  entropy T*S    EENTRO =        -0.00000000
  eigenvalues    EBANDS =     -4945.02874192
  atomic energy  EATOM  =     38271.68908261
  Solvation  Ediel_sol  =         0.00000000
  ---------------------------------------------------
  free energy    TOTEN  =       542.95440902 eV

  energy without entropy =      542.95440902  energy(sigma->0) =      542.95440902
  exchange ACFDT corr.  =         0.00000000  see jH, gK, PRB 81, 115126


--------------------------------------------------------------------------------------------------------




--------------------------------------- Iteration      1(   4)  ---------------------------------------


     EDDAV:  cpu time   17.8251: real time   17.8773
       DOS:  cpu time    0.0003: real time    0.0003
    --------------------------------------------
      LOOP:  cpu time   17.8255: real time   17.8776

 eigenvalue-minimisations  :  2112
 total energy-change (2. order) :-0.1110144E+02  (-0.1104881E+02)
 number of electron     622.0000000 magnetization     114.0000000
 augmentation part      622.0000000 magnetization     114.0000000

 Free energy of the ion-electron system (eV)
  ---------------------------------------------------
  alpha Z        PSCENC =       648.78857340
  Ewald energy   TEWEN  =     -6771.26375380
  -Hartree energ DENC   =    -28493.20691749
  -exchange      EXHF   =         0.00000000
  -V(xc)+E(xc)   XCENC  =      1266.25658753
  PAW double counting   =     22212.25602133   -21646.53644264
  entropy T*S    EENTRO =        -0.00000000
  eigenvalues    EBANDS =     -4956.13018136
  atomic energy  EATOM  =     38271.68908261
  Solvation  Ediel_sol  =         0.00000000
  ---------------------------------------------------
  free energy    TOTEN  =       531.85296958 eV

  energy without entropy =      531.85296958  energy(sigma->0) =      531.85296958
  exchange ACFDT corr.  =         0.00000000  see jH, gK, PRB 81, 115126


--------------------------------------------------------------------------------------------------------




--------------------------------------- Iteration      1(   5)  ---------------------------------------


     EDDAV:  cpu time 2459.0029: real time 2466.0769
       DOS:  cpu time    0.0003: real time    0.0003
    CHARGE:  cpu time    1.3208: real time    1.3246
    MIXING:  cpu time    0.0112: real time    0.0113
    --------------------------------------------
      LOOP:  cpu time 2460.3353: real time 2467.4131

 eigenvalue-minimisations  :  2200
 total energy-change (2. order) :-0.1838758E+04  (-0.4313206E+02)
 number of electron     622.0000001 magnetization     -68.4000000
 augmentation part       69.3194604 magnetization     -67.3955581

 Free energy of the ion-electron system (eV)
  ---------------------------------------------------
  alpha Z        PSCENC =       648.78857340
  Ewald energy   TEWEN  =     -6771.26375380
  -Hartree energ DENC   =    -28493.20691749
  -exchange      EXHF   =      1773.79680379
  -V(xc)+E(xc)   XCENC  =      1266.25658753
  PAW double counting   =     22212.25602133   -21646.53644264
  entropy T*S    EENTRO =        -0.00000000
  eigenvalues    EBANDS =     -8568.68529107
  atomic energy  EATOM  =     38271.68908261
  Solvation  Ediel_sol  =         0.00000000
  ---------------------------------------------------
  free energy    TOTEN  =     -1306.90533633 eV

  energy without entropy =    -1306.90533633  energy(sigma->0) =    -1306.90533633
  exchange ACFDT corr.  =        -0.00000000  see jH, gK, PRB 81, 115126


--------------------------------------------------------------------------------------------------------




--------------------------------------- Iteration      1(   6)  ---------------------------------------


    POTLOK:  cpu time    1.4654: real time    1.4805
    SETDIJ:  cpu time    0.6877: real time    0.6893
     EDDAV:  cpu time 2276.8919: real time 2282.6349
       DOS:  cpu time    0.0004: real time    0.0004
    CHARGE:  cpu time    1.3245: real time    1.3276
    MIXING:  cpu time    0.0086: real time    0.0086
    --------------------------------------------
      LOOP:  cpu time 2280.3784: real time 2286.1413

 eigenvalue-minimisations  :  1992
 total energy-change (2. order) : 0.1861235E+03  (-0.2880184E+02)
 number of electron     622.0000001 magnetization      41.0400000
 augmentation part       63.1194685 magnetization      41.2562820

 Free energy of the ion-electron system (eV)
  ---------------------------------------------------
  alpha Z        PSCENC =       648.78857340
  Ewald energy   TEWEN  =     -6771.26375380
  -Hartree energ DENC   =    -29845.77547262
  -exchange      EXHF   =      1901.99343326
  -V(xc)+E(xc)   XCENC  =      1380.13208227
  PAW double counting   =     26058.92729137   -25511.97261189
  entropy T*S    EENTRO =        -0.00000000
  eigenvalues    EBANDS =     -7253.30041635
  atomic energy  EATOM  =     38271.68908261
  Solvation  Ediel_sol  =         0.00000000
  ---------------------------------------------------
  free energy    TOTEN  =     -1120.78179174 eV

  energy without entropy =    -1120.78179174  energy(sigma->0) =    -1120.78179174
  exchange ACFDT corr.  =        -0.00000000  see jH, gK, PRB 81, 115126


--------------------------------------------------------------------------------------------------------




--------------------------------------- Iteration      1(   7)  ---------------------------------------


    POTLOK:  cpu time    1.4990: real time    1.5108
    SETDIJ:  cpu time    0.6877: real time    0.6901
     EDDAV:  cpu time 2195.3995: real time 2200.8751
       DOS:  cpu time    0.0003: real time    0.0003
    CHARGE:  cpu time    1.3167: real time    1.3199
    MIXING:  cpu time    0.0118: real time    0.0118
    --------------------------------------------
      LOOP:  cpu time 2198.9150: real time 2204.4080

 eigenvalue-minimisations  :  1880
 total energy-change (2. order) :-0.3470476E+02  (-0.1508583E+02)
 number of electron     622.0000001 magnetization     -24.6240000
 augmentation part       59.4476618 magnetization     -24.9038644

 Free energy of the ion-electron system (eV)
  ---------------------------------------------------
  alpha Z        PSCENC =       648.78857340
  Ewald energy   TEWEN  =     -6771.26375380
  -Hartree energ DENC   =    -30333.82118495
  -exchange      EXHF   =      1825.46703550
  -V(xc)+E(xc)   XCENC  =      1371.38744389
  PAW double counting   =     27576.09473374   -27032.33929104
  entropy T*S    EENTRO =        -0.00000000
  eigenvalues    EBANDS =     -6711.48918646
  atomic energy  EATOM  =     38271.68908261
  Solvation  Ediel_sol  =         0.00000000
  ---------------------------------------------------
  free energy    TOTEN  =     -1155.48654710 eV

  energy without entropy =    -1155.48654710  energy(sigma->0) =    -1155.48654710
  exchange ACFDT corr.  =         0.00000000  see jH, gK, PRB 81, 115126


--------------------------------------------------------------------------------------------------------




--------------------------------------- Iteration      1(   8)  ---------------------------------------


    POTLOK:  cpu time    1.5072: real time    1.5188
    SETDIJ:  cpu time    0.6890: real time    0.6907
     EDDAV:  cpu time 2172.1379: real time 2177.9798
       DOS:  cpu time    0.0003: real time    0.0003
    CHARGE:  cpu time    1.3246: real time    1.3278
    MIXING:  cpu time    0.0073: real time    0.0073
    --------------------------------------------
      LOOP:  cpu time 2175.6664: real time 2181.5247

 eigenvalue-minimisations  :  1848
 total energy-change (2. order) :-0.2122904E+02  (-0.4826148E+01)
 number of electron     622.0000002 magnetization      14.7744000
 augmentation part       58.9615015 magnetization      14.7370344

 Free energy of the ion-electron system (eV)
  ---------------------------------------------------
  alpha Z        PSCENC =       648.78857340
  Ewald energy   TEWEN  =     -6771.26375380
  -Hartree energ DENC   =    -30379.77167117
  -exchange      EXHF   =      1778.82572424
  -V(xc)+E(xc)   XCENC  =      1358.75905531
  PAW double counting   =     27918.76651968   -27373.30246514
  entropy T*S    EENTRO =        -0.00000000
  eigenvalues    EBANDS =     -6629.20665078
  atomic energy  EATOM  =     38271.68908261
  Solvation  Ediel_sol  =         0.00000000
  ---------------------------------------------------
  free energy    TOTEN  =     -1176.71558565 eV

  energy without entropy =    -1176.71558565  energy(sigma->0) =    -1176.71558565
  exchange ACFDT corr.  =        -0.00000000  see jH, gK, PRB 81, 115126


--------------------------------------------------------------------------------------------------------




--------------------------------------- Iteration      1(   9)  ---------------------------------------


    POTLOK:  cpu time    1.5436: real time    1.5562
    SETDIJ:  cpu time    0.6898: real time    0.6919
     EDDAV:  cpu time 2125.7428: real time 2131.9739
       DOS:  cpu time    0.0003: real time    0.0003
    CHARGE:  cpu time    1.3411: real time    1.3445
    MIXING:  cpu time    0.0074: real time    0.0075
    --------------------------------------------
      LOOP:  cpu time 2129.3251: real time 2135.5743

 eigenvalue-minimisations  :  1808
 total energy-change (2. order) :-0.1370506E+02  (-0.2029796E+01)
 number of electron     622.0000002 magnetization      -8.8646400
 augmentation part       59.2054813 magnetization      -8.9888374

 Free energy of the ion-electron system (eV)
  ---------------------------------------------------
  alpha Z        PSCENC =       648.78857340
  Ewald energy   TEWEN  =     -6771.26375380
  -Hartree energ DENC   =    -30376.37593663
  -exchange      EXHF   =      1770.80465922
  -V(xc)+E(xc)   XCENC  =      1346.11095298
  PAW double counting   =     28039.91937710   -27493.23539340
  entropy T*S    EENTRO =        -0.00000000
  eigenvalues    EBANDS =     -6626.85820942
  atomic energy  EATOM  =     38271.68908261
  Solvation  Ediel_sol  =         0.00000000
  ---------------------------------------------------
  free energy    TOTEN  =     -1190.42064793 eV

  energy without entropy =    -1190.42064793  energy(sigma->0) =    -1190.42064793
  exchange ACFDT corr.  =        -0.00000000  see jH, gK, PRB 81, 115126


--------------------------------------------------------------------------------------------------------




--------------------------------------- Iteration      1(  10)  ---------------------------------------


    POTLOK:  cpu time    1.5533: real time    1.5635
    SETDIJ:  cpu time    0.6898: real time    0.6915
     EDDAV:  cpu time 2153.9918: real time 2159.7556
       DOS:  cpu time    0.0003: real time    0.0003
    CHARGE:  cpu time    1.3177: real time    1.3209
    MIXING:  cpu time    0.0116: real time    0.0116
    --------------------------------------------
      LOOP:  cpu time 2157.5645: real time 2163.3434

 eigenvalue-minimisations  :  1816
 total energy-change (2. order) :-0.3699049E+01  (-0.8934063E+00)
 number of electron     622.0000002 magnetization       5.3187840
 augmentation part       59.4188694 magnetization       5.3042417

 Free energy of the ion-electron system (eV)
  ---------------------------------------------------
  alpha Z        PSCENC =       648.78857340
  Ewald energy   TEWEN  =     -6771.26375380
  -Hartree energ DENC   =    -30396.70738619
  -exchange      EXHF   =      1772.92662750
  -V(xc)+E(xc)   XCENC  =      1344.20150422
  PAW double counting   =     28143.02562829   -27595.98315432
  entropy T*S    EENTRO =        -0.00000000
  eigenvalues    EBANDS =     -6610.79681872
  atomic energy  EATOM  =     38271.68908261
  Solvation  Ediel_sol  =         0.00000000
  ---------------------------------------------------
  free energy    TOTEN  =     -1194.11969700 eV

  energy without entropy =    -1194.11969700  energy(sigma->0) =    -1194.11969700
  exchange ACFDT corr.  =        -0.00000000  see jH, gK, PRB 81, 115126


--------------------------------------------------------------------------------------------------------




--------------------------------------- Iteration      1(  11)  ---------------------------------------


    POTLOK:  cpu time    1.6149: real time    1.6272
    SETDIJ:  cpu time    0.6906: real time    0.6923
     EDDAV:  cpu time 2138.2169: real time 2143.4897
       DOS:  cpu time    0.0003: real time    0.0003
    CHARGE:  cpu time    1.3222: real time    1.3254
    MIXING:  cpu time    0.0081: real time    0.0082
    --------------------------------------------
      LOOP:  cpu time 2141.8532: real time 2147.1430

 eigenvalue-minimisations  :  1800
 total energy-change (2. order) :-0.4854333E+01  (-0.3798897E+00)
 number of electron     622.0000002 magnetization      -3.1912704
 augmentation part       59.4180269 magnetization      -3.2199793

 Free energy of the ion-electron system (eV)
  ---------------------------------------------------
  alpha Z        PSCENC =       648.78857340
  Ewald energy   TEWEN  =     -6771.26375380
  -Hartree energ DENC   =    -30427.17669160
  -exchange      EXHF   =      1774.60002702
  -V(xc)+E(xc)   XCENC  =      1341.59092661
  PAW double counting   =     28227.04794220   -27680.03681029
  entropy T*S    EENTRO =        -0.00000000
  eigenvalues    EBANDS =     -6584.21332582
  atomic energy  EATOM  =     38271.68908261
  Solvation  Ediel_sol  =         0.00000000
  ---------------------------------------------------
  free energy    TOTEN  =     -1198.97402967 eV

  energy without entropy =    -1198.97402967  energy(sigma->0) =    -1198.97402967
  exchange ACFDT corr.  =         0.00000000  see jH, gK, PRB 81, 115126


--------------------------------------------------------------------------------------------------------




--------------------------------------- Iteration      1(  12)  ---------------------------------------


    POTLOK:  cpu time    1.6047: real time    1.6166
    SETDIJ:  cpu time    0.6879: real time    0.6895
     EDDAV:  cpu time 2174.1423: real time 2179.5158
       DOS:  cpu time    0.0003: real time    0.0003
    CHARGE:  cpu time    1.3254: real time    1.3286
    MIXING:  cpu time    0.0072: real time    0.0072
    --------------------------------------------
      LOOP:  cpu time 2177.7678: real time 2183.1580

 eigenvalue-minimisations  :  1864
 total energy-change (2. order) :-0.2511405E+00  (-0.1193371E+00)
 number of electron     622.0000002 magnetization       1.9147622
 augmentation part       59.3864024 magnetization       1.9166955

 Free energy of the ion-electron system (eV)
  ---------------------------------------------------
  alpha Z        PSCENC =       648.78857340
  Ewald energy   TEWEN  =     -6771.26375380
  -Hartree energ DENC   =    -30446.30336540
  -exchange      EXHF   =      1773.94337207
  -V(xc)+E(xc)   XCENC  =      1342.12983491
  PAW double counting   =     28270.77307603   -27723.80883507
  entropy T*S    EENTRO =        -0.00000000
  eigenvalues    EBANDS =     -6565.17315491
  atomic energy  EATOM  =     38271.68908261
  Solvation  Ediel_sol  =         0.00000000
  ---------------------------------------------------
  free energy    TOTEN  =     -1199.22517015 eV

  energy without entropy =    -1199.22517015  energy(sigma->0) =    -1199.22517015
  exchange ACFDT corr.  =        -0.00000000  see jH, gK, PRB 81, 115126


--------------------------------------------------------------------------------------------------------




--------------------------------------- Iteration      1(  13)  ---------------------------------------


    POTLOK:  cpu time    1.7010: real time    1.7131
    SETDIJ:  cpu time    0.6889: real time    0.6905
     EDDAV:  cpu time 2186.4488: real time 2191.8215
       DOS:  cpu time    0.0004: real time    0.0004
    CHARGE:  cpu time    1.3135: real time    1.3168
    MIXING:  cpu time    0.0107: real time    0.0108
    --------------------------------------------
      LOOP:  cpu time 2190.1633: real time 2195.5530

 eigenvalue-minimisations  :  1872
 total energy-change (2. order) :-0.9423112E+00  (-0.4957233E-01)
 number of electron     622.0000002 magnetization      -1.1488573
 augmentation part       59.3576155 magnetization      -1.1524477

 Free energy of the ion-electron system (eV)
  ---------------------------------------------------
  alpha Z        PSCENC =       648.78857340
  Ewald energy   TEWEN  =     -6771.26375380
  -Hartree energ DENC   =    -30458.01440160
  -exchange      EXHF   =      1773.41196626
  -V(xc)+E(xc)   XCENC  =      1341.82362998
  PAW double counting   =     28290.24620075   -27743.27704425
  entropy T*S    EENTRO =        -0.00000000
  eigenvalues    EBANDS =     -6553.57173472
  atomic energy  EATOM  =     38271.68908261
  Solvation  Ediel_sol  =         0.00000000
  ---------------------------------------------------
  free energy    TOTEN  =     -1200.16748137 eV

  energy without entropy =    -1200.16748137  energy(sigma->0) =    -1200.16748137
  exchange ACFDT corr.  =        -0.00000000  see jH, gK, PRB 81, 115126


--------------------------------------------------------------------------------------------------------




--------------------------------------- Iteration      1(  14)  ---------------------------------------


    POTLOK:  cpu time    1.6727: real time    1.6870
    SETDIJ:  cpu time    0.6888: real time    0.6905
     EDDAV:  cpu time 2149.2329: real time 2154.5489
       DOS:  cpu time    0.0003: real time    0.0003
    CHARGE:  cpu time    1.3241: real time    1.3273
    MIXING:  cpu time    0.0076: real time    0.0076
    --------------------------------------------
      LOOP:  cpu time 2152.9265: real time 2158.2616

 eigenvalue-minimisations  :  1832
 total energy-change (2. order) : 0.7421745E-01  (-0.1446245E-01)
 number of electron     622.0000002 magnetization       0.6893144
 augmentation part       59.3547640 magnetization       0.6933186

 Free energy of the ion-electron system (eV)
  ---------------------------------------------------
  alpha Z        PSCENC =       648.78857340
  Ewald energy   TEWEN  =     -6771.26375380
  -Hartree energ DENC   =    -30464.26837278
  -exchange      EXHF   =      1772.90948135
  -V(xc)+E(xc)   XCENC  =      1341.97462914
[...]
      4.59587      7.96537     11.99348        -0.438211      0.127285     -0.053047
      2.32953      3.82687      2.33414         0.204372     -0.362790     -0.012076
     -2.05341      3.98380     12.28470         0.395681     -0.021416     -0.042870
      8.91537      7.94198      2.56052        -0.425102     -0.056708     -0.054490
      4.46831      7.59597      7.44537        -0.257442     -0.294500     -0.081588
     -2.10034     11.77290      7.02238         0.352423      0.316773      0.015465
     11.29399      4.00109      7.35850        -0.195378      0.398574      0.002837
      2.21657      4.14630      7.11310         0.258441      0.317350      0.116755
      9.09212      7.61376      7.45291         0.229753     -0.343662     -0.029380
      8.83558      0.09579      7.61321        -0.365542     -0.141706     -0.149303
     -0.05483      2.87311      1.91329         0.006410     -0.118917     -0.342351
      7.01160      8.91705     12.61442         0.293297      0.045983      0.376230
      4.39867     10.39660      1.62988         0.057945      0.037202     -0.153163
      2.40172      1.28625     12.86449        -0.027509     -0.000442      0.276488
     -4.49134     10.45336      1.88005        -0.046864      0.044928     -0.255191
     11.13873      1.45314     12.69154         0.141969     -0.053049      0.338406
      6.78787      6.58776      6.90797        -0.002318     -0.049794     -0.334786
      6.73175      1.02467      2.58629        -0.276481      0.147492      0.370076
      4.25351      2.49117      6.91189         0.127939      0.130944     -0.394750
      9.23801      5.36620      2.88681        -0.101828     -0.029548      0.359817
      9.31620      2.44474      6.67897        -0.118058      0.124553     -0.196421
      4.35282      5.40276      2.88474         0.093607     -0.073176      0.308387
      0.01903     10.58258     11.92357         0.023388     -0.027279     -0.381761
     -0.05778      5.07318      7.97069         0.006834      0.106868      0.193892
     -2.14337      6.57257     11.83836        -0.073686     -0.040446     -0.369222
      2.53996      9.33307      7.67890        -0.183307     -0.167666      0.386145
      2.51136      6.33459     11.82442        -0.108797      0.041408     -0.394931
     -2.54026      9.19470      8.03883        -0.054503     -0.342149      0.178025
     11.88458      3.05928     14.69312         0.159199     -0.295257     -0.005344
      8.55721      8.62571      0.04466        -0.103677      0.338283      0.008218
      5.16815      8.43964     14.75953         0.097056      0.393096      0.278245
      1.68224      3.15213     14.64403        -0.139931     -0.356864      0.005216
      3.69657      0.02850      0.06896        -0.412742     -0.022329     -0.013346
      5.01379      6.98167      4.93664         0.173109     -0.297820      0.010548
      8.29851      0.57465      5.04540        -0.022914      0.390432      0.266855
      5.29386      1.29288      4.80584        -0.023744      0.057162      0.005570
      8.57983      6.92245      4.95406        -0.169949     -0.277683      0.004375
     10.47342      4.10450      4.87578        -0.412267     -0.123692      0.032450
      3.33903      3.81991      4.76487         0.271747      0.064034      0.006855
     -1.58342     11.24100      9.85116         0.039588     -0.374383      0.288082
      2.01963      4.85465      9.66559        -0.300107      0.226983     -0.007380
     -1.96227      4.81634      9.82712         0.290680      0.267662     -0.031091
      1.73405     10.62345      9.85130        -0.133296     -0.144671      0.027306
      3.24874      7.81309      9.76060        -0.153324      0.007934     -0.041036
     -3.64218      7.58910      9.90030         0.380240      0.160147     -0.016750
      9.91861      0.14128     14.67368         0.423734     -0.088084      0.010056
      7.28472      5.28036      9.98973         0.600558     -1.305857      0.222115
     12.06442      2.69636      1.50139         0.023454      0.032872      0.023640
     -5.17653      9.02316     13.24043        -0.148492     -0.036313     -0.069991
      5.25619      9.03878      1.47206        -0.054314      0.010517     -0.005506
      1.53500      2.62301     13.11252         0.043779     -0.007156     -0.051229
      3.05107      0.02087      1.57393         0.021289     -0.052148      0.067099
     10.53027      0.00915     13.13292         0.000998     -0.000057      0.010221
     -3.62083     11.79528     13.27700         0.006445      0.015938     -0.056596
      3.68689     11.81758      1.45753        -0.084322     -0.058416      0.041005
      1.48861      2.76146      1.45144        -0.032895      0.052140      0.047395
     12.08837      2.68428     13.13369        -0.074220      0.018720     -0.046519
      8.34690      9.10644      1.58668         0.032027      0.004102      0.023857
      5.23779      6.54808      6.47522         0.018535      0.035881      0.062608
      5.27379      1.30576      6.43330        -0.074410     -0.041091      0.012759
      8.37405      6.64099      3.36178         0.061315      0.019172     -0.041817
      9.97626      3.87730      6.40050         0.038450     -0.049942      0.061594
      3.70324      3.95716      3.18534        -0.025943      0.031833     -0.046538
      9.90511      3.94889      3.34038         0.009361      0.006025     -0.039916
      3.63366      3.86313      6.35757        -0.022567     -0.055362      0.060838
      5.26178      1.32506      3.19995         0.159254     -0.054825     -0.000583
      8.35075      6.52895      6.50603        -0.027501      0.051108      0.072914
      5.22431      6.68359      3.34942        -0.069800      0.030628     -0.036578
      8.29183      1.18923      6.52128         0.052974     -0.037724      0.019156
     -1.51036     10.68796     11.34365         0.022496      0.049884     -0.011262
      1.54545      5.17891      8.14708        -0.011789     -0.045219     -0.044142
     -1.50543      5.17419     11.34993        -0.046881     -0.008130      0.040048
      1.55657     10.52154      8.23987        -0.067249      0.036732     -0.033218
      3.11864      7.77772     11.38134         0.132053      0.004374      0.094561
     -3.23907      7.80782      8.32998        -0.002763      0.066459     -0.048536
      3.05805      7.88360      8.16626         0.051591      0.029522     -0.003762
     -3.03477      7.84958     11.39727        -0.026717     -0.041404      0.066986
     -1.64921      5.10409      8.26776        -0.016529     -0.025766     -0.019986
      1.55841     10.43374     11.44495         0.003696      0.033860      0.012400
      1.68670      5.06354     11.25521         0.042399      0.005044      0.042870
      5.33652      9.06467     13.16169         0.048884     -0.048566     -0.062190
      8.31634      1.12613      3.41055        -0.039466     -0.060296     -0.039209
     -1.60917     10.64823      8.21763         0.015526      0.003200     -0.038775
      7.50641      0.27721      0.54197        -0.007773     -0.016403      0.003792
     -0.22849      7.94983      7.07700         0.000790      0.009956     -0.033069
      6.66098      7.17306     11.09697        -0.023986      0.078252      0.020171
      8.44448      2.84320     10.41278        -0.320934      0.665025     -0.100293
      7.78720      4.21936     10.17983        -0.276625      0.549928     -0.141371
 -----------------------------------------------------------------------------------
    total drift:                               -0.003147      0.003800      0.000692


--------------------------------------------------------------------------------------------------------



  FREE ENERGIE OF THE ION-ELECTRON SYSTEM (eV)
  ---------------------------------------------------
  free  energy   TOTEN  =     -1200.24422677 eV

  energy  without entropy=    -1200.24422677  energy(sigma->0) =    -1200.24422677
 


--------------------------------------------------------------------------------------------------------


    POTLOK:  cpu time    2.3761: real time    2.3819


--------------------------------------------------------------------------------------------------------


 stress matrix after NEB project (eV)
      0.00000      0.00000      0.00000
      0.00000      0.00000      0.00000
      0.00000      0.00000      0.00000
  FORCES: max atom, RMS     1.454396    0.347905
  FORCE total and by dimension    3.714607    1.305857
  Stress total and by dimension    0.000000    0.000000
     LOOP+:  cpu time73323.8502: real time73515.0521
    4ORBIT:  cpu time    0.0000: real time    0.0000
 


 total charge     
 
# of ion       s       p       d       tot
------------------------------------------
    1        1.578   3.720   0.000   5.298
    2        1.576   3.734   0.000   5.310
    3        1.581   3.724   0.000   5.304
    4        1.578   3.718   0.000   5.296
    5        1.577   3.727   0.000   5.304
    6        1.579   3.693   0.000   5.271
    7        1.579   3.733   0.000   5.312
    8        1.579   3.694   0.000   5.274
    9        1.581   3.696   0.000   5.277
   10        1.577   3.723   0.000   5.299
   11        1.579   3.720   0.000   5.299
   12        1.581   3.712   0.000   5.293
   13        1.574   3.741   0.000   5.315
   14        1.578   3.684   0.000   5.263
   15        1.575   3.744   0.000   5.320
   16        1.579   3.663   0.000   5.242
   17        1.579   3.711   0.000   5.290
   18        1.579   3.692   0.000   5.270
   19        1.578   3.732   0.000   5.310
   20        1.581   3.724   0.000   5.305
   21        1.582   3.724   0.000   5.306
   22        1.579   3.725   0.000   5.303
   23        1.582   3.725   0.000   5.308
   24        1.580   3.722   0.000   5.303
   25        1.579   3.726   0.000   5.305
   26        1.583   3.685   0.000   5.269
   27        1.579   3.676   0.000   5.255
   28        1.580   3.727   0.000   5.307
   29        1.580   3.735   0.000   5.315
   30        1.580   3.725   0.000   5.305
   31        1.581   3.733   0.000   5.314
   32        1.583   3.692   0.000   5.275
   33        1.581   3.725   0.000   5.306
   34        1.581   3.726   0.000   5.307
   35        1.581   3.729   0.000   5.310
   36        1.581   3.720   0.000   5.301
   37        1.578   3.735   0.000   5.313
   38        1.580   3.673   0.000   5.252
   39        1.575   3.759   0.000   5.334
   40        1.575   3.744   0.000   5.319
   41        1.576   3.751   0.000   5.327
   42        1.579   3.728   0.000   5.307
   43        1.578   3.744   0.000   5.322
   44        1.578   3.663   0.000   5.241
   45        1.582   3.725   0.000   5.307
   46        1.578   3.729   0.000   5.308
   47        1.575   3.745   0.000   5.320
   48        1.577   3.739   0.000   5.316
   49        1.579   3.721   0.000   5.300
   50        1.575   3.745   0.000   5.320
   51        1.580   3.735   0.000   5.315
   52        1.582   3.714   0.000   5.297
   53        1.579   3.724   0.000   5.303
   54        1.580   3.702   0.000   5.282
   55        1.578   3.732   0.000   5.310
   56        1.579   3.725   0.000   5.303
   57        1.583   3.682   0.000   5.265
   58        1.578   3.718   0.000   5.296
   59        1.581   3.710   0.000   5.291
   60        1.579   3.731   0.000   5.310
   61        1.582   3.683   0.000   5.265
   62        1.573   3.751   0.000   5.324
   63        1.577   3.730   0.000   5.307
   64        1.581   3.712   0.000   5.293
   65        1.575   3.733   0.000   5.308
   66        1.582   3.681   0.000   5.262
   67        1.578   3.717   0.000   5.295
   68        1.581   3.725   0.000   5.306
   69        1.574   3.743   0.000   5.317
   70        1.575   3.749   0.000   5.324
   71        1.580   3.709   0.000   5.290
   72        1.580   3.682   0.000   5.261
   73        1.619   3.592   0.000   5.211
   74        0.637   0.994   0.000   1.631
   75        0.643   0.998   0.000   1.640
   76        0.645   1.006   0.000   1.650
   77        0.634   0.986   0.000   1.620
   78        0.639   0.997   0.000   1.636
   79        0.643   0.995   0.000   1.639
   80        0.637   0.993   0.000   1.630
   81        0.643   1.000   0.000   1.643
   82        0.636   0.989   0.000   1.625
   83        0.638   0.995   0.000   1.633
   84        0.639   0.998   0.000   1.637
   85        0.640   1.006   0.000   1.646
   86        0.643   0.997   0.000   1.640
   87        0.637   0.990   0.000   1.626
   88        0.639   0.994   0.000   1.633
   89        0.637   0.992   0.000   1.630
   90        0.641   0.997   0.000   1.638
   91        0.640   0.998   0.000   1.638
   92        0.644   1.001   0.000   1.645
   93        0.639   0.999   0.000   1.638
   94        0.638   0.994   0.000   1.631
   95        0.643   0.993   0.000   1.636
   96        0.641   0.993   0.000   1.634
   97        0.637   0.985   0.000   1.622
   98        0.639   1.002   0.000   1.641
   99        0.644   0.997   0.000   1.640
  100        0.642   0.995   0.000   1.636
  101        0.644   0.999   0.000   1.644
  102        0.640   0.996   0.000   1.636
  103        0.639   0.998   0.000   1.638
  104        0.641   0.997   0.000   1.637
  105        0.638   0.992   0.000   1.631
  106        0.636   0.990   0.000   1.626
  107        0.350   0.467   0.000   0.817
  108        0.350   0.468   0.000   0.818
  109        0.349   0.468   0.000   0.817
  110        0.089   0.060   9.258   9.407
  111        0.099   0.074   9.259   9.432
  112        0.109   0.076   9.240   9.424
  113        1.365   2.398   0.000   3.763
  114        0.930   1.643   0.000   2.573
--------------------------------------------------
tot        140.056 309.872  27.757 477.686
 


 magnetization (x)
 
# of ion       s       p       d       tot
------------------------------------------
    1        0.000   0.000   0.000   0.000
    2       -0.000  -0.000   0.000  -0.000
    3        0.000   0.000   0.000   0.000
    4       -0.000  -0.000   0.000  -0.000
    5        0.000   0.000   0.000   0.000
    6       -0.000  -0.000   0.000  -0.000
    7       -0.000   0.000   0.000   0.000
    8        0.000   0.000   0.000   0.000
    9        0.000   0.000   0.000   0.000
   10        0.000   0.000   0.000   0.000
   11       -0.000   0.000   0.000   0.000
   12        0.000   0.000   0.000   0.000
   13       -0.000  -0.000   0.000  -0.000
   14        0.000  -0.000   0.000  -0.000
   15       -0.000  -0.000   0.000  -0.000
   16       -0.000  -0.000   0.000  -0.000
   17       -0.000  -0.000   0.000  -0.000
   18       -0.000  -0.000   0.000  -0.000
   19        0.000   0.000   0.000   0.000
   20       -0.000  -0.000   0.000  -0.000
   21        0.000   0.000   0.000   0.000
   22       -0.000  -0.000   0.000  -0.000
   23        0.000   0.000   0.000   0.000
   24       -0.000  -0.000   0.000  -0.000
   25       -0.000  -0.000   0.000  -0.000
   26        0.000   0.000   0.000   0.000
   27       -0.000  -0.000   0.000  -0.000
   28        0.000   0.000   0.000   0.000
   29       -0.000  -0.000   0.000  -0.000
   30       -0.000   0.000   0.000   0.000
   31       -0.000  -0.000   0.000  -0.000
   32        0.000  -0.000   0.000  -0.000
   33       -0.000  -0.000   0.000  -0.000
   34       -0.000  -0.000   0.000  -0.000
   35       -0.000  -0.000   0.000  -0.000
   36       -0.000  -0.000   0.000  -0.000
   37        0.000   0.000   0.000   0.000
   38       -0.000  -0.000   0.000  -0.000
   39        0.000   0.000   0.000   0.000
   40       -0.000  -0.000   0.000  -0.000
   41        0.000   0.000   0.000   0.000
   42       -0.000  -0.000   0.000  -0.000
   43       -0.000   0.000   0.000   0.000
   44        0.000   0.000   0.000   0.000
   45       -0.000  -0.000   0.000  -0.000
   46        0.000   0.000   0.000   0.000
   47        0.000   0.000   0.000   0.000
   48        0.000   0.000   0.000   0.000
   49       -0.000  -0.000   0.000  -0.000
   50       -0.000  -0.000   0.000  -0.000
   51       -0.000  -0.000   0.000  -0.000
   52       -0.000  -0.000   0.000  -0.000
   53       -0.000  -0.000   0.000  -0.000
   54       -0.000  -0.000   0.000  -0.000
   55        0.000   0.000   0.000   0.000
   56        0.000   0.000   0.000   0.000
   57        0.000   0.000   0.000   0.000
   58        0.000   0.000   0.000   0.000
   59        0.000   0.000   0.000   0.000
   60        0.000   0.000   0.000   0.000
   61        0.000   0.000   0.000   0.000
   62        0.000   0.000   0.000   0.000
   63        0.000   0.000   0.000   0.000
   64        0.000   0.000   0.000   0.000
   65        0.000   0.000   0.000   0.000
   66       -0.000  -0.000   0.000  -0.000
   67        0.000  -0.000   0.000  -0.000
   68       -0.000  -0.000   0.000  -0.000
   69       -0.000  -0.000   0.000  -0.000
   70       -0.000  -0.000   0.000  -0.000
   71       -0.000  -0.000   0.000  -0.000
   72        0.000   0.000   0.000   0.000
   73       -0.000  -0.000   0.000  -0.000
   74       -0.000  -0.000   0.000  -0.000
   75       -0.000   0.000   0.000   0.000
   76       -0.000  -0.000   0.000  -0.000
   77        0.000   0.000   0.000   0.000
   78       -0.000  -0.000   0.000  -0.000
   79        0.000   0.000   0.000   0.000
   80        0.000   0.000   0.000   0.000
   81       -0.000  -0.000   0.000  -0.000
   82       -0.000  -0.000   0.000  -0.000
   83        0.000   0.000   0.000   0.000
   84       -0.000  -0.000   0.000  -0.000
   85       -0.000  -0.000   0.000  -0.000
   86       -0.000   0.000   0.000  -0.000
   87       -0.000  -0.000   0.000  -0.000
   88       -0.000  -0.000   0.000  -0.000
   89       -0.000  -0.000   0.000  -0.000
   90       -0.000  -0.000   0.000  -0.000
   91       -0.000  -0.000   0.000  -0.000
   92       -0.000  -0.000   0.000  -0.000
   93       -0.000  -0.000   0.000  -0.000
   94       -0.000  -0.000   0.000  -0.000
   95       -0.000  -0.000   0.000  -0.000
   96        0.000   0.000   0.000   0.000
   97        0.000   0.000   0.000   0.000
   98        0.000   0.000   0.000   0.000
   99        0.000   0.000   0.000   0.000
  100        0.000   0.000   0.000   0.000
  101        0.000   0.000   0.000   0.000
  102        0.000   0.000   0.000   0.000
  103        0.000   0.000   0.000   0.000
  104        0.000   0.000   0.000   0.000
  105        0.000   0.000   0.000   0.000
  106        0.000   0.000   0.000   0.000
  107        0.000   0.000   0.000   0.000
  108       -0.000  -0.000   0.000  -0.000
  109        0.000   0.000   0.000   0.000
  110       -0.000  -0.000   0.000   0.000
  111       -0.000  -0.000   0.000   0.000
  112        0.000   0.000  -0.000  -0.000
  113       -0.000  -0.000   0.000  -0.000
  114       -0.000  -0.000   0.000  -0.000
--------------------------------------------------
tot         -0.000   0.000   0.000   0.000
 

 total amount of memory used by VASP MPI-rank0   233870. kBytes
=======================================================================

   base      :      30000. kBytes
   nonlr-proj:      31852. kBytes
   fftplans  :      69849. kBytes
   grid      :      62827. kBytes
   one-center:        902. kBytes
   HF        :         93. kBytes
   wavefun   :      38347. kBytes
 
  
  
 General timing and accounting informations for this job:
 ========================================================
  
                  Total CPU time used (sec):    73348.977
                            User time (sec):    66530.403
                          System time (sec):     6818.573
                         Elapsed time (sec):    73540.804
  
                   Maximum memory used (kb):      463880.
                   Average memory used (kb):           0.
  
                          Minor page faults:      3564160
                          Major page faults:           10
                 Voluntary context switches:         1419
