>>>  VASP 5.4.4 with BEEF-vdw and vtst
--------------------------------------------------------
>>>  Job information
     SLURM_JOBID=8751588
     SLURM_JOB_NODELIST=cpn-u22-17
     SLURM_NNODES=1
     SLURMTMPDIR=/scratch/8751588
     working directory = /projects/academic/ericwalk/ruthbell/Ads_Ag-SSZ13/SULPHURS/COS-C/vtst
--------------------------------------------------------
>>>  Module information
--------------------------------------------------------
>>>  Running Configuration
NPROCS=16
--------------------------------------------------------
>>>  Job started at Tue Jun 28 11:43:55 EDT 2022
--------------------------------------------------------
 running on   16 total cores
 distrk:  each k-point on   16 cores,    1 groups
 distr:  one band on    4 cores,    4 groups
 using from now: INCAR     
 vasp.5.4.4.18Apr17-6-g9f103f2a35 (build Dec 31 2018 11:41:54) complex          
  
 POSCAR found type information on POSCAR  O  Si Al Ag S  C 
 POSCAR found :  6 types and     114 ions
 scaLAPACK will be used
 LDA part: xc-table for Pade appr. of Perdew
 POSCAR found type information on POSCAR  O  Si Al Ag S  C 
 POSCAR found :  6 types and     114 ions
 POSCAR, INCAR and KPOINTS ok, starting setup
 FFT: planning ...
 WAVECAR not read
 entering main loop
       N       E                     dE             d eps       ncg     rms          rms(c)
DAV:   1     0.437821952587E+04    0.43782E+04   -0.25982E+05  1800   0.103E+03
DAV:   2    -0.426035273650E+03   -0.48043E+04   -0.46237E+04  2112   0.295E+02
DAV:   3    -0.945272426201E+03   -0.51924E+03   -0.51560E+03  2104   0.102E+02
DAV:   4    -0.955741360254E+03   -0.10469E+02   -0.10429E+02  2152   0.158E+01
DAV:   5    -0.956015854132E+03   -0.27449E+00   -0.27415E+00  2144   0.236E+00    0.868E+01
DAV:   6    -0.604455665943E+03    0.35156E+03   -0.71709E+02  2000   0.388E+01    0.280E+01
DAV:   7    -0.693237498431E+03   -0.88782E+02   -0.82474E+01  2056   0.123E+01    0.192E+01
DAV:   8    -0.763604685626E+03   -0.70367E+02   -0.30949E+01  2032   0.796E+00    0.110E+01
DAV:   9    -0.840238002685E+03   -0.76633E+02   -0.57469E+01  2032   0.891E+00    0.490E+00
DAV:  10    -0.854236554622E+03   -0.13999E+02   -0.84796E+00  2112   0.364E+00    0.355E+00
DAV:  11    -0.871174944340E+03   -0.16938E+02   -0.12356E+01  1920   0.411E+00    0.171E+00
DAV:  12    -0.873189661968E+03   -0.20147E+01   -0.11232E+00  1976   0.137E+00    0.929E-01
DAV:  13    -0.874142174501E+03   -0.95251E+00   -0.39994E-01  1912   0.846E-01    0.434E-01
DAV:  14    -0.874343753158E+03   -0.20158E+00   -0.81950E-02  1928   0.366E-01    0.256E-01
DAV:  15    -0.874360749269E+03   -0.16996E-01   -0.15135E-02  2024   0.245E-01    0.132E-01
DAV:  16    -0.874366894884E+03   -0.61456E-02   -0.50137E-03  2048   0.149E-01    0.921E-02
DAV:  17    -0.874371369366E+03   -0.44745E-02   -0.21179E-03  2048   0.101E-01    0.406E-02
DAV:  18    -0.874375126950E+03   -0.37576E-02   -0.13716E-03  2000   0.765E-02    0.447E-02
DAV:  19    -0.874375615544E+03   -0.48859E-03   -0.34540E-04  2064   0.436E-02    0.248E-02
DAV:  20    -0.874376016135E+03   -0.40059E-03   -0.26099E-04  2040   0.353E-02    0.133E-02
DAV:  21    -0.874376357686E+03   -0.34155E-03   -0.10617E-04  2008   0.234E-02    0.125E-02
DAV:  22    -0.874376514233E+03   -0.15655E-03   -0.60957E-05  2032   0.174E-02    0.469E-03
DAV:  23    -0.874376612511E+03   -0.98278E-04   -0.39141E-05  2040   0.131E-02    0.357E-03
DAV:  24    -0.874376661988E+03   -0.49477E-04   -0.15406E-05  2080   0.799E-03    0.263E-03
DAV:  25    -0.874376687514E+03   -0.25526E-04   -0.69137E-06  2088   0.503E-03    0.152E-03
DAV:  26    -0.874376705452E+03   -0.17938E-04   -0.42774E-06  2048   0.361E-03    0.149E-03
DAV:  27    -0.874376708576E+03   -0.31246E-05   -0.16038E-06  2112   0.222E-03    0.126E-03
DAV:  28    -0.874376709107E+03   -0.53066E-06   -0.68534E-07  2104   0.143E-03    0.123E-03
DAV:  29    -0.874376709087E+03    0.19732E-07   -0.36300E-07  2024   0.102E-03    0.121E-03
DAV:  30    -0.874376709109E+03   -0.22002E-07   -0.11714E-07  2056   0.576E-04    0.118E-03
DAV:  31    -0.874376709124E+03   -0.14428E-07   -0.51143E-08  1968   0.384E-04    0.118E-03
DAV:  32    -0.874376709136E+03   -0.12355E-07   -0.13391E-08  1912   0.207E-04    0.118E-03
DAV:  33    -0.874376709147E+03   -0.11474E-07   -0.54506E-09  1784   0.137E-04    0.117E-03
DAV:  34    -0.874376709151E+03   -0.32524E-08   -0.18758E-09  1704   0.866E-05
   1 F= -.87437671E+03 E0= -.87437671E+03  d E =-.874377E+03  mag=    -0.0000
quench:  g(F)=  0.000E+00 g(S)=  0.000E+00 dE (1.order)= 0.000E+00
 bond charge predicted
       N       E                     dE             d eps       ncg     rms          rms(c)
DAV:   1    -0.874376684532E+03    0.24616E-04   -0.54984E-03  1792   0.547E-02    0.107E-02
DAV:   2    -0.874376690175E+03   -0.56433E-05   -0.70597E-05  2000   0.511E-03    0.619E-03
DAV:   3    -0.874376689510E+03    0.66512E-06   -0.12691E-06  2096   0.112E-03    0.309E-03
DAV:   4    -0.874376689395E+03    0.11490E-06   -0.55973E-07  1840   0.843E-04    0.131E-03
DAV:   5    -0.874376689384E+03    0.11278E-07   -0.91380E-08  2096   0.348E-04    0.123E-03
DAV:   6    -0.874376689372E+03    0.11925E-07   -0.36488E-09  1672   0.187E-04    0.118E-03
DAV:   7    -0.874376689368E+03    0.39072E-08   -0.22175E-09  1576   0.145E-04
   2 F= -.87437669E+03 E0= -.87437669E+03  d E =0.197826E-04  mag=    -0.0000
quench:  g(F)=  0.000E+00 g(S)=  0.000E+00 dE (1.order)= 0.000E+00
 bond charge predicted
       N       E                     dE             d eps       ncg     rms          rms(c)
DAV:   1    -0.874376663177E+03    0.26195E-04   -0.10949E-02  1760   0.747E-02    0.231E-02
DAV:   2    -0.874376669894E+03   -0.67171E-05   -0.18555E-04  2016   0.873E-03    0.121E-02
DAV:   3    -0.874376666092E+03    0.38025E-05   -0.83386E-06  2360   0.337E-03    0.456E-03
DAV:   4    -0.874376666005E+03    0.86962E-07   -0.21880E-06  2048   0.167E-03    0.196E-03
DAV:   5    -0.874376666043E+03   -0.38213E-07   -0.97877E-08  2064   0.714E-04    0.138E-03
DAV:   6    -0.874376666059E+03   -0.15745E-07   -0.46774E-08  1712   0.662E-04    0.120E-03
DAV:   7    -0.874376666048E+03    0.10506E-07   -0.43611E-08  1792   0.430E-04    0.119E-03
DAV:   8    -0.874376666045E+03    0.28958E-08   -0.39896E-08  1712   0.457E-04
   3 F= -.87437667E+03 E0= -.87437667E+03  d E =0.233227E-04  mag=     0.0000
quench:  g(F)=  0.000E+00 g(S)=  0.000E+00 dE (1.order)= 0.000E+00
 bond charge predicted
       N       E                     dE             d eps       ncg     rms          rms(c)
DAV:   1    -0.874376704024E+03   -0.37976E-04   -0.11003E-02  1776   0.781E-02    0.202E-02
DAV:   2    -0.874376713534E+03   -0.95101E-05   -0.16350E-04  2024   0.833E-03    0.113E-02
DAV:   3    -0.874376710894E+03    0.26401E-05   -0.56646E-06  2288   0.266E-03    0.447E-03
DAV:   4    -0.874376710718E+03    0.17634E-06   -0.18008E-06  1856   0.155E-03    0.175E-03
DAV:   5    -0.874376710668E+03    0.50321E-07   -0.22031E-07  1792   0.836E-04    0.134E-03
DAV:   6    -0.874376710703E+03   -0.35601E-07   -0.30514E-07  1760   0.977E-04    0.119E-03
DAV:   7    -0.874376710653E+03    0.50299E-07   -0.35228E-07  1760   0.951E-04    0.118E-03
DAV:   8    -0.874376710633E+03    0.19339E-07   -0.20694E-07  1760   0.742E-04    0.118E-03
DAV:   9    -0.874376710604E+03    0.29773E-07   -0.66462E-08  1696   0.456E-04    0.117E-03
DAV:  10    -0.874376710604E+03   -0.27649E-09   -0.88736E-09  1696   0.184E-04
   4 F= -.87437671E+03 E0= -.87437671E+03  d E =-.445585E-04  mag=    -0.0000
quench:  g(F)=  0.000E+00 g(S)=  0.000E+00 dE (1.order)= 0.000E+00
 bond charge predicted
       N       E                     dE             d eps       ncg     rms          rms(c)
DAV:   1    -0.874376684997E+03    0.25607E-04   -0.63714E-03  1760   0.603E-02    0.121E-02
DAV:   2    -0.874376694431E+03   -0.94345E-05   -0.12132E-04  2080   0.731E-03    0.664E-03
DAV:   3    -0.874376693691E+03    0.74042E-06   -0.19541E-06  2040   0.127E-03    0.399E-03
DAV:   4    -0.874376693214E+03    0.47619E-06   -0.94148E-07  2000   0.991E-04    0.137E-03
DAV:   5    -0.874376693224E+03   -0.99753E-08   -0.19534E-07  2048   0.365E-04    0.127E-03
DAV:   6    -0.874376693222E+03    0.25830E-08   -0.64561E-09  1648   0.110E-04
   5 F= -.87437669E+03 E0= -.87437669E+03  d E =0.173821E-04  mag=    -0.0000
quench:  g(F)=  0.000E+00 g(S)=  0.000E+00 dE (1.order)= 0.000E+00
 bond charge predicted
       N       E                     dE             d eps       ncg     rms          rms(c)
DAV:   1    -0.874376689080E+03    0.41447E-05   -0.17759E-03  1760   0.245E-02    0.183E-02
DAV:   2    -0.874376683453E+03    0.56266E-05   -0.67928E-05  2000   0.770E-03    0.724E-03
DAV:   3    -0.874376683143E+03    0.31035E-06   -0.53925E-06  2064   0.199E-03    0.405E-03
DAV:   4    -0.874376683244E+03   -0.10141E-06   -0.15733E-06  2080   0.125E-03    0.166E-03
DAV:   5    -0.874376683345E+03   -0.10040E-06   -0.13904E-07  2360   0.567E-04    0.128E-03
DAV:   6    -0.874376683369E+03   -0.23945E-07   -0.20634E-08  1936   0.270E-04    0.120E-03
DAV:   7    -0.874376683390E+03   -0.21035E-07   -0.11385E-08  1832   0.290E-04    0.118E-03
DAV:   8    -0.874376683388E+03    0.11278E-08   -0.62709E-09  1648   0.147E-04
   6 F= -.87437668E+03 E0= -.87437668E+03  d E =0.983342E-05  mag=    -0.0000
quench:  g(F)=  0.000E+00 g(S)=  0.000E+00 dE (1.order)= 0.000E+00
 bond charge predicted
       N       E                     dE             d eps       ncg     rms          rms(c)
DAV:   1    -0.874376719201E+03   -0.35811E-04   -0.17842E-03  1760   0.254E-02    0.151E-02
DAV:   2    -0.874376717210E+03    0.19902E-05   -0.64766E-05  1984   0.704E-03    0.615E-03
DAV:   3    -0.874376716250E+03    0.96065E-06   -0.41878E-06  2096   0.174E-03    0.350E-03
DAV:   4    -0.874376715579E+03    0.67040E-06   -0.11024E-06  2080   0.106E-03    0.156E-03
DAV:   5    -0.874376715469E+03    0.11065E-06   -0.11090E-07  2160   0.497E-04    0.125E-03
DAV:   6    -0.874376715446E+03    0.22934E-07   -0.15488E-08  1744   0.239E-04    0.119E-03
DAV:   7    -0.874376715424E+03    0.21231E-07   -0.11330E-08  1784   0.285E-04    0.118E-03
DAV:   8    -0.874376715425E+03   -0.10186E-08   -0.72149E-09  1648   0.152E-04
   7 F= -.87437672E+03 E0= -.87437672E+03  d E =-.320370E-04  mag=    -0.0000
quench:  g(F)=  0.000E+00 g(S)=  0.000E+00 dE (1.order)= 0.000E+00
 bond charge predicted
       N       E                     dE             d eps       ncg     rms          rms(c)
DAV:   1    -0.874376682500E+03    0.32924E-04   -0.30700E-03  1760   0.380E-02    0.131E-02
DAV:   2    -0.874376686517E+03   -0.40172E-05   -0.74138E-05  2048   0.619E-03    0.810E-03
DAV:   3    -0.874376685963E+03    0.55449E-06   -0.18747E-06  2080   0.146E-03    0.456E-03
DAV:   4    -0.874376685848E+03    0.11449E-06   -0.12452E-06  2032   0.134E-03    0.148E-03
DAV:   5    -0.874376685848E+03    0.79308E-09   -0.15162E-07  2064   0.480E-04    0.128E-03
DAV:   6    -0.874376685851E+03   -0.31141E-08   -0.18552E-08  1744   0.256E-04
   8 F= -.87437669E+03 E0= -.87437669E+03  d E =0.295748E-04  mag=    -0.0000
quench:  g(F)=  0.000E+00 g(S)=  0.000E+00 dE (1.order)= 0.000E+00
 bond charge predicted
       N       E                     dE             d eps       ncg     rms          rms(c)
DAV:   1    -0.874376659351E+03    0.26497E-04   -0.47055E-03  1792   0.458E-02    0.272E-02
DAV:   2    -0.874376653765E+03    0.55860E-05   -0.11420E-04  1968   0.927E-03    0.182E-02
DAV:   3    -0.874376648743E+03    0.50219E-05   -0.76039E-06  2224   0.315E-03    0.921E-03
DAV:   4    -0.874376646625E+03    0.21177E-05   -0.62840E-06  2208   0.320E-03    0.250E-03
DAV:   5    -0.874376646568E+03    0.57269E-07   -0.85769E-07  2128   0.120E-03    0.165E-03
DAV:   6    -0.874376646501E+03    0.67041E-07   -0.80625E-08  2080   0.572E-04    0.130E-03
DAV:   7    -0.874376646452E+03    0.48654E-07   -0.49864E-08  1888   0.718E-04    0.120E-03
DAV:   8    -0.874376646474E+03   -0.21988E-07   -0.64775E-08  1696   0.634E-04    0.118E-03
DAV:   9    -0.874376646495E+03   -0.21071E-07   -0.15380E-07  1760   0.696E-04    0.118E-03
DAV:  10    -0.874376646455E+03    0.39858E-07   -0.84317E-08  1760   0.479E-04    0.118E-03
DAV:  11    -0.874376646459E+03   -0.33979E-08   -0.20950E-08  1696   0.240E-04
   9 F= -.87437665E+03 E0= -.87437665E+03  d E =0.393920E-04  mag=     0.0000
quench:  g(F)=  0.000E+00 g(S)=  0.000E+00 dE (1.order)= 0.000E+00
 bond charge predicted
       N       E                     dE             d eps       ncg     rms          rms(c)
DAV:   1    -0.874376716201E+03   -0.69746E-04   -0.44671E-03  1760   0.458E-02    0.226E-02
DAV:   2    -0.874376713205E+03    0.29961E-05   -0.84216E-05  2000   0.780E-03    0.150E-02
DAV:   3    -0.874376710489E+03    0.27160E-05   -0.51376E-06  2224   0.270E-03    0.754E-03
DAV:   4    -0.874376709711E+03    0.77824E-06   -0.39362E-06  2120   0.259E-03    0.212E-03
DAV:   5    -0.874376709643E+03    0.67776E-07   -0.54298E-07  2144   0.996E-04    0.152E-03
DAV:   6    -0.874376709648E+03   -0.45766E-08   -0.50775E-08  2240   0.452E-04
  10 F= -.87437671E+03 E0= -.87437671E+03  d E =-.631889E-04  mag=    -0.0000
quench:  g(F)=  0.000E+00 g(S)=  0.000E+00 dE (1.order)= 0.000E+00
--------------------------------------------------------
>>>  Job finished at Tue Jun 28 12:22:12 EDT 2022
