 vasp.5.4.4.18Apr17-6-g9f103f2a35 (build Dec 31 2018 11:41:54) complex          
  
 executed on             LinuxIFC date 2022.06.28  11:43:56
 running on   16 total cores
 distrk:  each k-point on   16 cores,    1 groups
 distr:  one band on NCORES_PER_BAND=   4 cores,    4 groups


--------------------------------------------------------------------------------------------------------


 INCAR:
 POTCAR:   PAW_PBE O 08Apr2002                    
 POTCAR:   PAW_PBE Si 05Jan2001                   
 POTCAR:   PAW_PBE Al 04Jan2001                   
 POTCAR:   PAW_PBE Ag 06Sep2000                   
 POTCAR:    PAW_PBE S 17Jan2003                   
 POTCAR:   PAW_PBE C 08Apr2002                    
 POTCAR:   PAW_PBE O 08Apr2002                    
   VRHFIN =O: s2p4                                                              
   LEXCH  = PE                                                                  
   EATOM  =   432.3788 eV,   31.7789 Ry                                         
                                                                                
   TITEL  = PAW_PBE O 08Apr2002                                                 
   LULTRA =        F    use ultrasoft PP ?                                      
   IUNSCR =        0    unscreen: 0-lin 1-nonlin 2-no                           
   RPACOR =     .000    partial core radius                                     
   POMASS =   16.000; ZVAL   =    6.000    mass and valenz                      
   RCORE  =    1.520    outmost cutoff radius                                   
   RWIGS  =    1.550; RWIGS  =     .820    wigner-seitz radius (au A)           
   ENMAX  =  400.000; ENMIN  =  300.000 eV                                      
   ICORE  =        2    local potential                                         
   LCOR   =        T    correct aug charges                                     
   LPAW   =        T    paw PP                                                  
   EAUG   =  605.392                                                            
   DEXC   =     .000                                                            
   RMAX   =    2.264    core radius for proj-oper                               
   RAUG   =    1.300    factor for augmentation sphere                          
   RDEP   =    1.550    radius for radial grids                                 
   QCUT   =   -5.520; QGAM   =   11.041    optimization parameters              
                                                                                
   Description                                                                  
     l     E      TYP  RCUT    TYP  RCUT                                        
     0   .000     23  1.200                                                     
     0  -.700     23  1.200                                                     
     1   .000     23  1.520                                                     
     1   .600     23  1.520                                                     
     2   .000      7  1.500                                                     
  local pseudopotential read in
  atomic valenz-charges read in
  non local Contribution for L=           0  read in
    real space projection operators read in
  non local Contribution for L=           0  read in
    real space projection operators read in
  non local Contribution for L=           1  read in
    real space projection operators read in
  non local Contribution for L=           1  read in
    real space projection operators read in
    PAW grid and wavefunctions read in
 
   number of l-projection  operators is LMAX  =           4
   number of lm-projection operators is LMMAX =           8
 
 POTCAR:   PAW_PBE Si 05Jan2001                   
   VRHFIN =Si: s2p2                                                             
   LEXCH  = PE                                                                  
   EATOM  =   103.0669 eV,    7.5752 Ry                                         
                                                                                
   TITEL  = PAW_PBE Si 05Jan2001                                                
   LULTRA =        F    use ultrasoft PP ?                                      
   IUNSCR =        1    unscreen: 0-lin 1-nonlin 2-no                           
   RPACOR =    1.500    partial core radius                                     
   POMASS =   28.085; ZVAL   =    4.000    mass and valenz                      
   RCORE  =    1.900    outmost cutoff radius                                   
   RWIGS  =    2.480; RWIGS  =    1.312    wigner-seitz radius (au A)           
   ENMAX  =  245.345; ENMIN  =  184.009 eV                                      
   ICORE  =        2    local potential                                         
   LCOR   =        T    correct aug charges                                     
   LPAW   =        T    paw PP                                                  
   EAUG   =  322.069                                                            
   DEXC   =    -.007                                                            
   RMAX   =    2.944    core radius for proj-oper                               
   RAUG   =    1.300    factor for augmentation sphere                          
   RDEP   =    1.993    radius for radial grids                                 
   QCUT   =   -4.246; QGAM   =    8.493    optimization parameters              
                                                                                
   Description                                                                  
     l     E      TYP  RCUT    TYP  RCUT                                        
     0   .000     23  1.900                                                     
     0   .000     23  1.900                                                     
     1   .000     23  1.900                                                     
     1   .000     23  1.900                                                     
     2   .000      7  1.900                                                     
  local pseudopotential read in
  partial core-charges read in
  atomic valenz-charges read in
  non local Contribution for L=           0  read in
    real space projection operators read in
  non local Contribution for L=           0  read in
    real space projection operators read in
  non local Contribution for L=           1  read in
    real space projection operators read in
  non local Contribution for L=           1  read in
    real space projection operators read in
    PAW grid and wavefunctions read in
 
   number of l-projection  operators is LMAX  =           4
   number of lm-projection operators is LMMAX =           8
 
 POTCAR:   PAW_PBE Al 04Jan2001                   
   VRHFIN =Al: s2p1                                                             
   LEXCH  = PE                                                                  
   EATOM  =    53.5387 eV,    3.9350 Ry                                         
                                                                                
   TITEL  = PAW_PBE Al 04Jan2001                                                
   LULTRA =        F    use ultrasoft PP ?                                      
   IUNSCR =        1    unscreen: 0-lin 1-nonlin 2-no                           
   RPACOR =    1.500    partial core radius                                     
   POMASS =   26.982; ZVAL   =    3.000    mass and valenz                      
   RCORE  =    1.900    outmost cutoff radius                                   
   RWIGS  =    2.650; RWIGS  =    1.402    wigner-seitz radius (au A)           
   ENMAX  =  240.300; ENMIN  =  180.225 eV                                      
   ICORE  =        2    local potential                                         
   LCOR   =        T    correct aug charges                                     
   LPAW   =        T    paw PP                                                  
   EAUG   =  291.052                                                            
   DEXC   =    -.041                                                            
   RMAX   =    2.974    core radius for proj-oper                               
   RAUG   =    1.300    factor for augmentation sphere                          
   RDEP   =    1.966    radius for radial grids                                 
   QCUT   =   -4.203; QGAM   =    8.405    optimization parameters              
                                                                                
   Description                                                                  
     l     E      TYP  RCUT    TYP  RCUT                                        
     0   .000     23  1.900                                                     
     0   .000     23  1.900                                                     
     1   .000     23  1.900                                                     
     1  1.000     23  1.900                                                     
     2   .000      7  1.900                                                     
  local pseudopotential read in
  partial core-charges read in
  atomic valenz-charges read in
  non local Contribution for L=           0  read in
    real space projection operators read in
  non local Contribution for L=           0  read in
    real space projection operators read in
  non local Contribution for L=           1  read in
    real space projection operators read in
  non local Contribution for L=           1  read in
    real space projection operators read in
    PAW grid and wavefunctions read in
 
   number of l-projection  operators is LMAX  =           4
   number of lm-projection operators is LMMAX =           8
 
 POTCAR:   PAW_PBE Ag 06Sep2000                   
   VRHFIN =Ag : s1 d10                                                          
   LEXCH  = PE                                                                  
   EATOM  =  1037.4134 eV,   76.2477 Ry                                         
                                                                                
   TITEL  = PAW_PBE Ag 06Sep2000                                                
   LULTRA =        F    use ultrasoft PP ?                                      
   IUNSCR =        1    unscreen: 0-lin 1-nonlin 2-no                           
   RPACOR =    2.000    partial core radius                                     
   POMASS =  107.868; ZVAL   =   11.000    mass and valenz                      
   RCORE  =    2.400    outmost cutoff radius                                   
   RWIGS  =    2.840; RWIGS  =    1.503    wigner-seitz radius (au A)           
   ENMAX  =  249.846; ENMIN  =  187.385 eV                                      
   RCLOC  =    1.962    cutoff for local pot                                    
   LCOR   =        T    correct aug charges                                     
   LPAW   =        T    paw PP                                                  
   EAUG   =  412.496                                                            
   DEXC   =    -.047                                                            
   RMAX   =    2.917    core radius for proj-oper                               
   RAUG   =    1.300    factor for augmentation sphere                          
   RDEP   =    2.416    radius for radial grids                                 
   QCUT   =   -4.285; QGAM   =    8.570    optimization parameters              
                                                                                
   Description                                                                  
     l     E      TYP  RCUT    TYP  RCUT                                        
     2   .000     23  2.400                                                     
     2   .000     23  2.400                                                     
     0   .000     23  2.400                                                     
     0   .000     23  2.400                                                     
     1  -.200     23  2.400                                                     
     1  1.500     23  2.400                                                     
     3   .000      7   .000                                                     
  local pseudopotential read in
  partial core-charges read in
  atomic valenz-charges read in
  non local Contribution for L=           2  read in
    real space projection operators read in
  non local Contribution for L=           2  read in
    real space projection operators read in
  non local Contribution for L=           0  read in
    real space projection operators read in
  non local Contribution for L=           0  read in
    real space projection operators read in
  non local Contribution for L=           1  read in
    real space projection operators read in
  non local Contribution for L=           1  read in
    real space projection operators read in
    PAW grid and wavefunctions read in
 
   number of l-projection  operators is LMAX  =           6
   number of lm-projection operators is LMMAX =          18
 
 POTCAR:    PAW_PBE S 17Jan2003                   
   VRHFIN =S : s2p4                                                             
   LEXCH  = PE                                                                  
   EATOM  =   276.8230 eV,   20.3459 Ry                                         
                                                                                
   TITEL  = PAW_PBE S 17Jan2003                                                 
   LULTRA =        F    use ultrasoft PP ?                                      
   IUNSCR =        1    unscreen: 0-lin 1-nonlin 2-no                           
   RPACOR =    1.500    partial core radius                                     
   POMASS =   32.066; ZVAL   =    6.000    mass and valenz                      
   RCORE  =    1.900    outmost cutoff radius                                   
   RWIGS  =    2.200; RWIGS  =    1.164    wigner-seitz radius (au A)           
   ENMAX  =  280.000; ENMIN  =  194.016 eV                                      
   ICORE  =        2    local potential                                         
   LCOR   =        T    correct aug charges                                     
   LPAW   =        T    paw PP                                                  
   EAUG   =  335.092                                                            
   DEXC   =     .000                                                            
   RMAX   =    2.867    core radius for proj-oper                               
   RAUG   =    1.300    factor for augmentation sphere                          
   RDEP   =    1.954    radius for radial grids                                 
   QCUT   =   -4.360; QGAM   =    8.721    optimization parameters              
                                                                                
   Description                                                                  
     l     E      TYP  RCUT    TYP  RCUT                                        
     0   .000     23  1.900                                                     
     0   .000     23  1.900                                                     
     1   .000     23  1.900                                                     
     1   .000     23  1.900                                                     
     2   .000     23  1.900                                                     
  local pseudopotential read in
  partial core-charges read in
  atomic valenz-charges read in
  non local Contribution for L=           0  read in
    real space projection operators read in
  non local Contribution for L=           0  read in
    real space projection operators read in
  non local Contribution for L=           1  read in
    real space projection operators read in
  non local Contribution for L=           1  read in
    real space projection operators read in
    PAW grid and wavefunctions read in
 
   number of l-projection  operators is LMAX  =           4
   number of lm-projection operators is LMMAX =           8
 
 POTCAR:   PAW_PBE C 08Apr2002                    
   VRHFIN =C: s2p2                                                              
   LEXCH  = PE                                                                  
   EATOM  =   147.1560 eV,   10.8157 Ry                                         
                                                                                
   TITEL  = PAW_PBE C 08Apr2002                                                 
   LULTRA =        F    use ultrasoft PP ?                                      
   IUNSCR =        0    unscreen: 0-lin 1-nonlin 2-no                           
   RPACOR =     .000    partial core radius                                     
   POMASS =   12.011; ZVAL   =    4.000    mass and valenz                      
   RCORE  =    1.500    outmost cutoff radius                                   
   RWIGS  =    1.630; RWIGS  =     .863    wigner-seitz radius (au A)           
   ENMAX  =  400.000; ENMIN  =  300.000 eV                                      
   ICORE  =        2    local potential                                         
   LCOR   =        T    correct aug charges                                     
   LPAW   =        T    paw PP                                                  
   EAUG   =  644.873                                                            
   DEXC   =     .000                                                            
   RMAX   =    2.266    core radius for proj-oper                               
   RAUG   =    1.300    factor for augmentation sphere                          
   RDEP   =    1.501    radius for radial grids                                 
   RDEPT  =    1.300    core radius for aug-charge                              
   QCUT   =   -5.516; QGAM   =   11.032    optimization parameters              
                                                                                
   Description                                                                  
     l     E      TYP  RCUT    TYP  RCUT                                        
     0   .000     23  1.200                                                     
     0   .000     23  1.200                                                     
     1   .000     23  1.500                                                     
     1  2.500     23  1.500                                                     
     2   .000      7  1.500                                                     
  local pseudopotential read in
  atomic valenz-charges read in
  non local Contribution for L=           0  read in
    real space projection operators read in
  non local Contribution for L=           0  read in
    real space projection operators read in
  non local Contribution for L=           1  read in
    real space projection operators read in
  non local Contribution for L=           1  read in
    real space projection operators read in
    PAW grid and wavefunctions read in
 
   number of l-projection  operators is LMAX  =           4
   number of lm-projection operators is LMMAX =           8
 
 Optimization of the real space projectors (new method)

 maximal supplied QI-value         = 24.76
 optimisation between [QCUT,QGAM] = [ 10.15, 20.30] = [ 28.85,115.39] Ry 
 Optimized for a Real-space Cutoff    1.51 Angstroem

   l    n(q)    QCUT    max X(q) W(low)/X(q) W(high)/X(q)  e(spline) 
   0      9    10.150     4.192    0.32E-04    0.13E-04    0.13E-06
   0      9    10.150     8.473    0.18E-03    0.20E-03    0.43E-06
   1      9    10.150     2.474    0.32E-04    0.33E-04    0.64E-07
   1      9    10.150     3.912    0.13E-03    0.16E-03    0.33E-06
 Optimization of the real space projectors (new method)

 maximal supplied QI-value         = 19.84
 optimisation between [QCUT,QGAM] = [ 10.12, 20.44] = [ 28.68,116.96] Ry 
 Optimized for a Real-space Cutoff    1.38 Angstroem

   l    n(q)    QCUT    max X(q) W(low)/X(q) W(high)/X(q)  e(spline) 
   0      8    10.119     8.708    0.16E-04    0.67E-05    0.60E-08
   0      8    10.119   106.241    0.56E-04    0.11E-03    0.54E-07
   1      8    10.119     5.901    0.16E-04    0.16E-05    0.22E-07
   1      8    10.119    73.241    0.22E-03    0.17E-03    0.18E-06
 Optimization of the real space projectors (new method)

 maximal supplied QI-value         = 19.84
 optimisation between [QCUT,QGAM] = [ 10.12, 20.44] = [ 28.68,116.96] Ry 
 Optimized for a Real-space Cutoff    1.26 Angstroem

   l    n(q)    QCUT    max X(q) W(low)/X(q) W(high)/X(q)  e(spline) 
   0      8    10.119    13.410    0.28E-04    0.17E-04    0.51E-08
   0      8    10.119   140.052    0.10E-03    0.16E-03    0.42E-07
   1      7    10.119     9.624    0.38E-04    0.42E-05    0.15E-07
   1      7    10.119    53.353    0.23E-03    0.17E-03    0.13E-06
 Optimization of the real space projectors (new method)

 maximal supplied QI-value         = 15.68
 optimisation between [QCUT,QGAM] = [ 10.20, 20.39] = [ 29.11,116.42] Ry 
 Optimized for a Real-space Cutoff    1.51 Angstroem

   l    n(q)    QCUT    max X(q) W(low)/X(q) W(high)/X(q)  e(spline) 
   2      8    10.195     3.831    0.11E-04    0.20E-04    0.48E-07
   2      8    10.195    20.184    0.23E-03    0.42E-03    0.20E-06
   0      9    10.195    16.770    0.13E-04    0.90E-05    0.63E-08
   0      9    10.195    80.708    0.19E-03    0.15E-03    0.44E-07
   1      9    10.195     6.696    0.12E-04    0.45E-04    0.30E-07
   1      9    10.195     8.973    0.12E-03    0.15E-03    0.13E-06
 Optimization of the real space projectors (new method)

 maximal supplied QI-value         = 19.84
 optimisation between [QCUT,QGAM] = [ 10.12, 20.44] = [ 28.68,116.96] Ry 
 Optimized for a Real-space Cutoff    1.42 Angstroem

   l    n(q)    QCUT    max X(q) W(low)/X(q) W(high)/X(q)  e(spline) 
   0      9    10.119     5.487    0.15E-04    0.47E-05    0.66E-08
   0      9    10.119    85.627    0.51E-04    0.92E-04    0.63E-07
   1      8    10.119     3.530    0.37E-05    0.76E-05    0.28E-07
   1      8    10.119    42.714    0.16E-03    0.16E-03    0.23E-06
 Optimization of the real space projectors (new method)

 maximal supplied QI-value         = 25.13
 optimisation between [QCUT,QGAM] = [ 10.05, 20.36] = [ 28.30,116.06] Ry 
 Optimized for a Real-space Cutoff    1.38 Angstroem

   l    n(q)    QCUT    max X(q) W(low)/X(q) W(high)/X(q)  e(spline) 
   0      8    10.053     5.582    0.33E-04    0.15E-04    0.75E-07
   0      8    10.053    69.432    0.23E-03    0.38E-03    0.25E-06
   1      8    10.053     2.780    0.76E-04    0.11E-03    0.15E-06
   1      8    10.053     4.549    0.19E-03    0.19E-03    0.27E-06
 PAW_PBE O 08Apr2002                    :
 energy of atom  1       EATOM= -432.3788
 kinetic energy error for atom=    0.1156 (will be added to EATOM!!)
 PAW_PBE Si 05Jan2001                   :
 energy of atom  2       EATOM= -103.0669
 kinetic energy error for atom=    0.0012 (will be added to EATOM!!)
 PAW_PBE Al 04Jan2001                   :
 energy of atom  3       EATOM=  -53.5387
 kinetic energy error for atom=    0.0005 (will be added to EATOM!!)
 PAW_PBE Ag 06Sep2000                   :
 energy of atom  4       EATOM=-1037.4134
 kinetic energy error for atom=    0.0091 (will be added to EATOM!!)
  PAW_PBE S 17Jan2003                   :
 energy of atom  5       EATOM= -276.8230
 kinetic energy error for atom=    0.0046 (will be added to EATOM!!)
 PAW_PBE C 08Apr2002                    :
 energy of atom  6       EATOM= -147.1560
 kinetic energy error for atom=    0.0288 (will be added to EATOM!!)
 
 
 POSCAR: O  C                                    
  positions in direct lattice
  velocities in cartesian coordinates
 exchange correlation table for  LEXCH =        8
   RHO(1)=    0.500       N(1)  =     2000
   RHO(2)=  100.500       N(2)  =     4000

 VTST: version 3.2, (02/03/18)

 CHAIN: initializing optimizer
 
 OPT: Using VASP Quick-Min optimizer
 CHAIN: Read ICHAIN            1
 
 POSCAR: O  C                                    
  positions in direct lattice
  velocities in cartesian coordinates
 CHAIN: Running the Dynamical Matrix
 


--------------------------------------------------------------------------------------------------------


 ion  position               nearest neighbor table
   1  0.898  0.097  0.118-  74 1.63  81 1.63
   2  0.108  0.889  0.882-  80 1.62  75 1.62
   3  0.894  0.795  0.129-  84 1.62  76 1.64
   4  0.095  0.196  0.866-  77 1.63  83 1.63
   5  0.196  0.104  0.116-  78 1.63  82 1.63
   6  0.801  0.903  0.881-  79 1.59 107 1.73
   7  0.555  0.427  0.456-  85 1.62  91 1.63
   8  0.764  0.233  0.219-  90 1.59 108 1.73
   9  0.567  0.142  0.471-  95 1.64  86 1.65
  10  0.766  0.539  0.206-  94 1.63  87 1.63
  11  0.864  0.425  0.463-  93 1.63  88 1.64
  12  0.465  0.236  0.183-  89 1.63  92 1.64
  13  0.231  0.775  0.776- 103 1.61  96 1.64
  14  0.425  0.570  0.524-  97 1.66 102 1.67 111 2.55
  15  0.233  0.451  0.774-  98 1.62 106 1.62
  16  0.429  0.851  0.530-  99 1.62 109 1.79 111 2.28
  17  0.533  0.756  0.805- 100 1.63 105 1.64
  18  0.124  0.560  0.533- 104 1.65 101 1.68 111 2.45
  19  0.977  0.315  0.161-  74 1.61  90 1.63
  20  0.022  0.670  0.841- 103 1.62  75 1.63
  21  0.678  0.673  0.173-  94 1.61  76 1.63
  22  0.313  0.316  0.819- 106 1.62  77 1.63
  23  0.318  0.015  0.179-  78 1.61  92 1.63
  24  0.664  0.981  0.826- 105 1.62  79 1.63
  25  0.326  0.987  0.838-  80 1.61  96 1.63
  26  0.677  0.004  0.162-  81 1.60 108 1.74 110 2.54
  27  0.672  0.673  0.812- 100 1.61 107 1.77 112 2.39
  28  0.332  0.323  0.158-  82 1.62  89 1.62
  29  0.018  0.336  0.832-  98 1.61  83 1.62
  30  0.987  0.671  0.173-  84 1.62  87 1.62
  31  0.647  0.641  0.504- 102 1.61  85 1.62
  32  0.343  0.994  0.476-  86 1.59 109 1.71
  33  0.995  0.338  0.498- 104 1.61  88 1.63
  34  0.337  0.350  0.482-  97 1.61  91 1.63
  35  0.986  0.643  0.505- 101 1.62  93 1.62
  36  0.650  0.008  0.516-  99 1.61  95 1.64
  37  0.117  0.243  0.130-  82 1.61  74 1.62
  38  0.889  0.753  0.854-  75 1.62 107 1.77 112 2.34
  39  0.761  0.878  0.110-  81 1.60  76 1.61
  40  0.230  0.109  0.871-  77 1.61  80 1.62
  41  0.113  0.883  0.127-  78 1.61  84 1.61
  42  0.876  0.123  0.859-  83 1.62  79 1.63
  43  0.775  0.556  0.468-  85 1.61  93 1.61
  44  0.536  0.087  0.175-  92 1.62 108 1.79 110 2.31
  45  0.416  0.210  0.468-  91 1.60  86 1.64
  46  0.902  0.453  0.195-  87 1.61  90 1.63
  47  0.784  0.206  0.452-  88 1.60  95 1.63
  48  0.546  0.456  0.195-  89 1.61  94 1.62
  49  0.448  0.894  0.807- 105 1.62  96 1.64
  50  0.210  0.428  0.540-  97 1.62 104 1.62
  51  0.121  0.555  0.802-  98 1.61 103 1.62
  52  0.580  0.788  0.520- 102 1.61  99 1.64
  53  0.451  0.535  0.801- 106 1.62 100 1.63
  54  0.202  0.776  0.544- 101 1.58 109 1.74
  55  0.998  0.258  0.995-  83 1.62  74 1.63
  56  0.990  0.728  0.003-  75 1.62  84 1.63
  57  0.734  0.713  0.999-  76 1.60 107 1.72
  58  0.256  0.266  0.992-  77 1.63  82 1.63
  59  0.272  0.002  0.005-  80 1.63  78 1.64
  60  0.661  0.590  0.334-  85 1.61  94 1.63
  61  0.631  0.049  0.342-  95 1.60 108 1.73
  62  0.442  0.109  0.325-  92 1.61  86 1.63
  63  0.920  0.585  0.335-  93 1.62  87 1.63
  64  0.939  0.347  0.330-  88 1.62  90 1.64
  65  0.405  0.323  0.323-  91 1.62  89 1.63
  66  0.359  0.949  0.667-  96 1.59 109 1.74
  67  0.353  0.410  0.655-  97 1.62 106 1.64
  68  0.060  0.407  0.665- 104 1.62  98 1.63
  69  0.575  0.897  0.667- 105 1.61  99 1.62
  70  0.567  0.660  0.661- 102 1.61 100 1.63
  71  0.054  0.641  0.670- 101 1.64 103 1.64
  72  0.731  0.012  0.994-  79 1.66  81 1.67 110 2.50
  73  0.756  0.446  0.676- 114 1.19 112 2.28
  74  0.996  0.228  0.102-  19 1.61  37 1.62  55 1.63   1 1.63  82 3.10  90 3.10  81 3.13  83 3.13

  75  0.002  0.762  0.897-  38 1.62  56 1.62   2 1.62  20 1.63 103 3.06  84 3.12 107 3.16 112 3.38

  76  0.766  0.763  0.100-  57 1.60  39 1.61  21 1.63   3 1.64  94 3.01 107 3.08  84 3.09
  77  0.223  0.221  0.888-  40 1.61  58 1.63  22 1.63   4 1.63 106 3.07  82 3.11  83 3.12
  78  0.224  0.002  0.107-  41 1.61  23 1.61   5 1.63  59 1.64  92 3.04  80 3.07
  79  0.770  0.001  0.889-   6 1.59  42 1.63  24 1.63  72 1.66 105 3.07  81 3.09  83 3.10 107 3.24

  80  0.233  0.996  0.899-  25 1.61  40 1.62   2 1.62  59 1.63  96 3.07  78 3.07
  81  0.769  0.998  0.099-  26 1.60  39 1.60   1 1.63  72 1.67  79 3.09  74 3.13 108 3.16 110 3.17

  82  0.225  0.233  0.098-  37 1.61  28 1.62   5 1.63  58 1.63  89 3.06  74 3.10  77 3.11
  83  0.997  0.227  0.889-  42 1.62  55 1.62  29 1.62   4 1.63  98 3.06  79 3.10  77 3.12  74 3.13

  84  0.995  0.769  0.107-  41 1.61   3 1.62  30 1.62  56 1.63  87 3.04  76 3.09  75 3.12
  85  0.659  0.553  0.438-  43 1.61  60 1.61   7 1.62  31 1.62 102 3.07  93 3.11  94 3.13  91 3.13

  86  0.441  0.110  0.436-  32 1.59  62 1.63  45 1.64   9 1.65  95 3.02  91 3.04 109 3.07
  87  0.893  0.561  0.228-  46 1.61  30 1.62  63 1.63  10 1.63  84 3.04  90 3.10  93 3.15
  88  0.893  0.327  0.433-  47 1.60  64 1.62  33 1.63  11 1.64 104 3.03  90 3.06  93 3.11
  89  0.438  0.334  0.216-  48 1.61  28 1.62  65 1.63  12 1.63  82 3.06  92 3.06  94 3.13
  90  0.891  0.333  0.226-   8 1.59  19 1.63  46 1.63  64 1.64  88 3.06  87 3.10  74 3.10 108 3.24

  91  0.429  0.326  0.431-  45 1.60  65 1.62   7 1.63  34 1.63  86 3.04  97 3.05  85 3.13
  92  0.441  0.112  0.217-  62 1.61  44 1.62  23 1.63  12 1.64  78 3.04  89 3.06 108 3.07
  93  0.886  0.551  0.441-  43 1.61  63 1.62  35 1.62  11 1.63 101 3.05  88 3.11  85 3.11  87 3.15

  94  0.664  0.564  0.227-  21 1.61  48 1.62  60 1.63  10 1.63  76 3.01  89 3.13  85 3.13
  95  0.657  0.100  0.442-  61 1.60  47 1.63  36 1.64   9 1.64  86 3.02  99 3.04 108 3.11
  96  0.341  0.902  0.768-  66 1.59  25 1.63  13 1.64  49 1.64  80 3.07 105 3.08 109 3.13
  97  0.332  0.437  0.552-  34 1.61  50 1.62  67 1.62  14 1.66  91 3.05 102 3.10 106 3.11
  98  0.108  0.437  0.769-  29 1.61  51 1.61  15 1.62  68 1.63  83 3.06 103 3.08 104 3.09
  99  0.558  0.888  0.558-  36 1.61  16 1.62  69 1.62  52 1.64 102 3.04  95 3.04 109 3.17 111 3.34

 100  0.556  0.657  0.771-  27 1.61  70 1.63  53 1.63  17 1.63 106 3.07 105 3.08 107 3.12
 101  0.093  0.659  0.564-  54 1.58  35 1.62  71 1.64  18 1.68  93 3.05 103 3.07 104 3.14 111 3.26

 102  0.556  0.666  0.553-  70 1.61  31 1.61  52 1.61  14 1.67  99 3.04  85 3.07  97 3.10
 103  0.109  0.663  0.772-  13 1.61  51 1.62  20 1.62  71 1.64  75 3.06 101 3.07  98 3.08
 104  0.095  0.431  0.560-  33 1.61  68 1.62  50 1.62  18 1.65  88 3.03  98 3.09 101 3.14
 105  0.554  0.881  0.775-  69 1.61  49 1.62  24 1.62  17 1.64  79 3.07  96 3.08 100 3.08
 106  0.337  0.428  0.762-  22 1.62  53 1.62  15 1.62  67 1.64  77 3.07 100 3.07  97 3.11
 107  0.773  0.765  0.891-  57 1.72   6 1.73  27 1.77  38 1.77  76 3.08 112 3.10 100 3.12  75 3.16
                            79 3.24
 108  0.656  0.095  0.231-  61 1.73   8 1.73  26 1.74  44 1.79  92 3.07 110 3.10  95 3.11  81 3.16
                            90 3.24
 109  0.332  0.899  0.556-  32 1.71  54 1.74  66 1.74  16 1.79  86 3.07  96 3.13  99 3.17 111 3.24

 110  0.561  0.023  0.037-  44 2.31  72 2.50  26 2.54 108 3.10  81 3.17
 111  0.319  0.671  0.479-  16 2.28  18 2.45  14 2.55 109 3.24 101 3.26  99 3.34
 112  0.790  0.606  0.751-  73 2.28  38 2.34  27 2.39 107 3.10  75 3.38
 113  0.738  0.240  0.705- 114 1.54
 114  0.748  0.356  0.689-  73 1.19 113 1.54
 
  LATTYP: Found a hexagonal cell.
 ALAT       =    13.6750001907
 C/A-ratio  =     1.0798537472
  
  Lattice vectors:
  
 A1 = (  13.6750001907,   0.0000000000,   0.0000000000)
 A2 = (  -6.8375000954,  11.8428975619,   0.0000000000)
 A3 = (   0.0000000000,   0.0000000000,  14.7670001984)


Analysis of symmetry for initial positions (statically):
=====================================================================
 Subroutine PRICEL returns:
 Original cell was already a primitive cell.
 

 Routine SETGRP: Setting up the symmetry group for a 
 hexagonal supercell.


 Subroutine GETGRP returns: Found  1 space group operations
 (whereof  1 operations were pure point group operations)
 out of a pool of 24 trial point group operations.


The static configuration has the point symmetry C_1 .


Analysis of symmetry for dynamics (positions and initial velocities):
=====================================================================
 Subroutine PRICEL returns:
 Original cell was already a primitive cell.
 

 Routine SETGRP: Setting up the symmetry group for a 
 hexagonal supercell.


 Subroutine GETGRP returns: Found  1 space group operations
 (whereof  1 operations were pure point group operations)
 out of a pool of 24 trial point group operations.


The dynamic configuration has the point symmetry C_1 .


Analysis of structural, dynamic, and magnetic symmetry:
=====================================================================
 Subroutine PRICEL returns:
 Original cell was already a primitive cell.
 

 Routine SETGRP: Setting up the symmetry group for a 
 hexagonal supercell.


 Subroutine GETGRP returns: Found  1 space group operations
 (whereof  1 operations were pure point group operations)
 out of a pool of 24 trial point group operations.


The magnetic configuration has the point symmetry C_1 .


 Subroutine INISYM returns: Found  1 space group operations
 (whereof  1 operations are pure point group operations),
 and found     1 'primitive' translations

 
 
 KPOINTS: Gamma points only                       
  k-points in reciprocal lattice
Space group operators:
 irot       det(A)        alpha          n_x          n_y          n_z        tau_x        tau_y        tau_z
    1     1.000000     0.000000     1.000000     0.000000     0.000000     0.000000     0.000000     0.000000


--------------------------------------------------------------------------------------------------------




 Dimension of arrays:
   k-points           NKPTS =      1   k-points in BZ     NKDIM =      1   number of bands    NBANDS=    432
   number of dos      NEDOS =    301   number of ions     NIONS =    114
   non local maximal  LDIM  =      6   non local SUM 2l+1 LMDIM =     18
   total plane-waves  NPLWV = 777600
   max r-space proj   IRMAX =   4725   max aug-charges    IRDMAX= 128081
   dimension x,y,z NGX =    90 NGY =   90 NGZ =   96
   dimension x,y,z NGXF=   180 NGYF=  180 NGZF=  192
   support grid    NGXF=   360 NGYF=  360 NGZF=  384
   ions per type =              73  33   3   3   1   1
   NGX,Y,Z   is equivalent  to a cutoff of  10.94, 10.94, 10.81 a.u.
   NGXF,Y,Z  is equivalent  to a cutoff of  21.88, 21.88, 21.62 a.u.

 SYSTEM =  zeolite                                 
 POSCAR =  O  C                                    

 Startparameter for this run:
   NWRITE =      2    write-flag & timer
   PREC   = acc       normal or accurate (medium, high low for compatibility)
   ISTART =      0    job   : 0-new  1-cont  2-samecut
   ICHARG =      2    charge: 1-file 2-atom 10-const
   ISPIN  =      2    spin polarized calculation?
   LNONCOLLINEAR =      F non collinear calculations
   LSORBIT =      F    spin-orbit coupling
   INIWAV =      1    electr: 0-lowe 1-rand  2-diag
   LASPH  =      F    aspherical Exc in radial PAW
   METAGGA=      F    non-selfconsistent MetaGGA calc.

 Electronic Relaxation 1
   ENCUT  =  400.0 eV  29.40 Ry    5.42 a.u.  22.30 22.30 24.08*2*pi/ulx,y,z
   ENINI  =  400.0     initial cutoff
   ENAUG  =  644.9 eV  augmentation charge cutoff
   NELM   =    100;   NELMIN=  2; NELMDL= -5     # of ELM steps 
   EDIFF  = 0.1E-07   stopping-criterion for ELM
   LREAL  =      T    real-space projection
   NLSPLINE    = F    spline interpolate recip. space projectors
   LCOMPAT=      F    compatible to vasp.4.4
   GGA_COMPAT  = T    GGA compatible to vasp.4.4-vasp.4.6
   LMAXPAW     = -100 max onsite density
   LMAXMIX     =    2 max onsite mixed and CHGCAR
   VOSKOWN=      0    Vosko Wilk Nusair interpolation
   ROPT   =   -0.00025  -0.00025  -0.00025  -0.00025
   ROPT   =   -0.00025  -0.00025
 Ionic relaxation
   EDIFFG = -.1E-07   stopping-criterion for IOM
   NSW    =     10    number of steps for IOM
   NBLOCK =      1;   KBLOCK =     10    inner block; outer block 
   IBRION =      3    ionic relax: 0-MD 1-quasi-New 2-CG
   NFREE  =      0    steps in history (QN), initial steepest desc. (CG)
   ISIF   =      2    stress and relaxation
   IWAVPR =     11    prediction:  0-non 1-charg 2-wave 3-comb
   ISYM   =      2    0-nonsym 1-usesym 2-fastsym
   LCORR  =      T    Harris-Foulkes like correction to forces

   POTIM  = 0.0000    time-step for ionic-motion
   TEIN   =    0.0    initial temperature
   TEBEG  =    0.0;   TEEND  =   0.0 temperature during run
   SMASS  =  -3.00    Nose mass-parameter (am)
   estimated Nose-frequenzy (Omega)   =  0.10E-29 period in steps =  0.00 mass=  -0.427E-26a.u.
   SCALEE = 1.0000    scale energy and forces
   NPACO  =    256;   APACO  = 16.0  distance and # of slots for P.C.
   PSTRESS=    0.0 pullay stress

  Mass of Ions in am
   POMASS =  16.00 28.09 26.98107.87 32.07 12.01
  Ionic Valenz
   ZVAL   =   6.00  4.00  3.00 11.00  6.00  4.00
  Atomic Wigner-Seitz radii
   RWIGS  =  -1.00 -1.00 -1.00 -1.00 -1.00 -1.00
  virtual crystal weights 
   VCA    =   1.00  1.00  1.00  1.00  1.00  1.00
   NELECT =     622.0000    total number of electrons
   NUPDOWN=      -1.0000    fix difference up-down

 DOS related values:
   EMIN   =  10.00;   EMAX   =-10.00  energy-range for DOS
   EFERMI =   0.00
   ISMEAR =     0;   SIGMA  =   0.05  broadening in eV -4-tet -1-fermi 0-gaus

 Electronic relaxation 2 (details)
   IALGO  =     38    algorithm
   LDIAG  =      T    sub-space diagonalisation (order eigenvalues)
   LSUBROT=      F    optimize rotation matrix (better conditioning)
   TURBO    =      0    0=normal 1=particle mesh
   IRESTART =      0    0=no restart 2=restart with 2 vectors
   NREBOOT  =      0    no. of reboots
   NMIN     =      0    reboot dimension
   EREF     =   0.00    reference energy to select bands
   IMIX   =      4    mixing-type and parameters
     AMIX     =   0.40;   BMIX     =  1.00
     AMIX_MAG =   1.60;   BMIX_MAG =  1.00
     AMIN     =   0.10
     WC   =   100.;   INIMIX=   1;  MIXPRE=   1;  MAXMIX= -45

 Intra band minimization:
   WEIMIN = 0.0010     energy-eigenvalue tresh-hold
   EBREAK =  0.58E-12  absolut break condition
   DEPER  =   0.30     relativ break condition  

   TIME   =   0.40     timestep for ELM

  volume/ion in A,a.u.               =      20.98       141.57
  Fermi-wavevector in a.u.,A,eV,Ry     =   1.044991  1.974746 14.857638  1.092006
  Thomas-Fermi vector in A             =   2.179767
 
 Write flags
   LWAVE        =      F    write WAVECAR
   LDOWNSAMPLE  =      F    k-point downsampling of WAVECAR
   LCHARG       =      F    write CHGCAR
   LVTOT        =      F    write LOCPOT, total local potential
   LVHAR        =      F    write LOCPOT, Hartree potential only
   LELF         =      F    write electronic localiz. function (ELF)
   LORBIT       =     11    0 simple, 1 ext, 2 COOP (PROOUT), +10 PAW based schemes


 Dipole corrections
   LMONO  =      F    monopole corrections only (constant potential shift)
   LDIPOL =      F    correct potential (dipole corrections)
   IDIPOL =      0    1-x, 2-y, 3-z, 4-all directions 
   EPSILON=  1.0000000 bulk dielectric constant

 Exchange correlation treatment:
   GGA     =    --    GGA type
   LEXCH   =     8    internal setting for exchange type
   VOSKOWN=      0    Vosko Wilk Nusair interpolation
   LHFCALC =     F    Hartree Fock is set to
   LHFONE  =     F    Hartree Fock one center treatment
   AEXX    =    0.0000 exact exchange contribution

 Linear response parameters
   LEPSILON=     F    determine dielectric tensor
   LRPA    =     F    only Hartree local field effects (RPA)
   LNABLA  =     F    use nabla operator in PAW spheres
   LVEL    =     F    velocity operator in full k-point grid
   LINTERFAST=   F  fast interpolation
   KINTER  =     0    interpolate to denser k-point grid
   CSHIFT  =0.1000    complex shift for real part using Kramers Kronig
   OMEGAMAX=  -1.0    maximum frequency
   DEG_THRESHOLD= 0.2000000E-02 threshold for treating states as degnerate
   RTIME   =   -0.100 relaxation time in fs
  (WPLASMAI=    0.000 imaginary part of plasma frequency in eV, 0.658/RTIME)
   DFIELD  = 0.0000000 0.0000000 0.0000000 field for delta impulse in time
 
 Orbital magnetization related:
   ORBITALMAG=     F  switch on orbital magnetization
   LCHIMAG   =     F  perturbation theory with respect to B field
   DQ        =  0.001000  dq finite difference perturbation B field
   LLRAUG    =     F  two centre corrections for induced B field



--------------------------------------------------------------------------------------------------------


 quickmin algorithm: (dynamic with friction)
 charge density and potential will be updated during run
 spin polarized calculation
 Variant of blocked Davidson
 Davidson routine will perform the subspace rotation
 perform sub-space diagonalisation
    after iterative eigenvector-optimisation
 modified Broyden-mixing scheme, WC =      100.0
 initial mixing is a Kerker type mixing with AMIX =  0.4000 and BMIX =      1.0000
 Hartree-type preconditioning will be used
 using additional bands          121
 real space projection scheme for non local part
 use partial core corrections
 calculate Harris-corrections to forces 
   (improved forces if not selfconsistent)
 use gradient corrections 
 use of overlap-Matrix (Vanderbilt PP)
 Gauss-broadening in eV      SIGMA  =   0.05


--------------------------------------------------------------------------------------------------------


  energy-cutoff  :      400.00
  volume of cell :     2391.54
      direct lattice vectors                 reciprocal lattice vectors
    13.675000191  0.000000000  0.000000000     0.073126142  0.042219398  0.000000000
    -6.837500095 11.842897562  0.000000000     0.000000000  0.084438795  0.000000000
     0.000000000  0.000000000 14.767000198     0.000000000  0.000000000  0.067718561

  length of vectors
    13.675000191 13.675000191 14.767000198     0.084438795  0.084438795  0.067718561


 
 k-points in units of 2pi/SCALE and weight: Gamma points only                       
   0.00000000  0.00000000  0.00000000       1.000
 
 k-points in reciprocal lattice and weights: Gamma points only                       
   0.00000000  0.00000000  0.00000000       1.000
 
 position of ions in fractional coordinates (direct lattice) 
   0.89807137  0.09713085  0.11820210
   0.10810994  0.88883305  0.88198057
   0.89410236  0.79490389  0.12854849
   0.09528555  0.19555140  0.86632570
   0.19588213  0.10364917  0.11550957
   0.80104157  0.90315923  0.88131314
   0.55497828  0.42697560  0.45632980
   0.76355424  0.23346451  0.21945449
   0.56739344  0.14223093  0.47120833
   0.76632005  0.53877777  0.20610107
   0.86371971  0.42514893  0.46262644
   0.46500389  0.23633157  0.18343264
   0.23147616  0.77514990  0.77632777
   0.42514016  0.56974222  0.52405778
   0.23282941  0.45086549  0.77397897
   0.42910445  0.85121184  0.53024421
   0.53255187  0.75648721  0.80504318
   0.12406829  0.55999386  0.53343221
   0.97680104  0.31543504  0.16098618
   0.02155012  0.66950398  0.84140209
   0.67840935  0.67334379  0.17324701
   0.31298951  0.31628165  0.81854352
   0.31799408  0.01539902  0.17940151
   0.66449569  0.98099946  0.82581253
   0.32640882  0.98654054  0.83842508
   0.67697958  0.00393881  0.16202272
   0.67237156  0.67258618  0.81218125
   0.33191797  0.32313650  0.15806491
   0.01803569  0.33638711  0.83190245
   0.98725238  0.67061137  0.17339450
   0.64744727  0.64139464  0.50419007
   0.34345501  0.99408969  0.47554529
   0.99480948  0.33784754  0.49830718
   0.33714346  0.35010832  0.48168893
   0.98632025  0.64289681  0.50470030
   0.65015612  0.00808826  0.51555530
   0.11729134  0.24260204  0.12956494
   0.88920371  0.75294490  0.85423055
   0.76059599  0.87787653  0.11037326
   0.22993272  0.10860911  0.87116497
   0.11290029  0.88266922  0.12731460
   0.87588316  0.12270123  0.85945254
   0.77450220  0.55626230  0.46779812
   0.53552783  0.08652226  0.17513969
   0.41621831  0.21035113  0.46806338
   0.90209740  0.45311512  0.19549043
   0.78447313  0.20643107  0.45229046
   0.54640599  0.45620284  0.19535031
   0.44818156  0.89358029  0.80744699
   0.20996119  0.42837311  0.53976334
   0.12075358  0.55497988  0.80167656
   0.57977423  0.78807330  0.52000377
   0.45108830  0.53488499  0.80073270
   0.20243561  0.77638967  0.54437833
   0.99823437  0.25832219  0.99499707
   0.98992786  0.72834431  0.00302442
   0.73424367  0.71263305  0.99949446
   0.25609668  0.26616206  0.99167254
   0.27151929  0.00240689  0.00466972
   0.66140145  0.58952397  0.33430230
   0.63109948  0.04852303  0.34166712
   0.44170451  0.10916937  0.32544427
   0.91967184  0.58452354  0.33548166
   0.93917014  0.34657874  0.33018084
   0.40544475  0.32254892  0.32267017
   0.35879873  0.94917628  0.66710671
   0.35264798  0.40992096  0.65454007
   0.05984996  0.40668620  0.66547825
   0.57532041  0.89703174  0.66711557
   0.56743155  0.65972805  0.66097406
   0.05406906  0.64081470  0.67043409
   0.73127454  0.01192919  0.99368046
   0.75563733  0.44586761  0.67649045
   0.99606317  0.22767756  0.10167221
   0.00241303  0.76190487  0.89662300
   0.76597646  0.76322380  0.09968610
   0.22299053  0.22148361  0.88796086
   0.22399437  0.00176255  0.10658453
   0.77042472  0.00077274  0.88934277
   0.23321257  0.99597963  0.89909942
   0.76853907  0.99786202  0.09870165
   0.22544353  0.23317403  0.09828916
   0.99730505  0.22665775  0.88939446
   0.99484522  0.76893705  0.10744750
   0.65947485  0.55291160  0.43849241
   0.44078079  0.11025704  0.43565379
   0.89274030  0.56075722  0.22765487
   0.89322259  0.32739459  0.43343233
   0.43787257  0.33413777  0.21570671
   0.89104225  0.33343941  0.22620551
   0.42881443  0.32619764  0.43052571
   0.44071724  0.11188646  0.21669607
   0.88630646  0.55129658  0.44057926
   0.66421108  0.56435418  0.22681774
   0.65655789  0.10041687  0.44161189
   0.34079261  0.90247884  0.76817555
   0.33166313  0.43730127  0.55170875
   0.10836510  0.43690234  0.76860066
   0.55803872  0.88842596  0.55799235
   0.55642449  0.65674128  0.77072821
   0.09278076  0.65928328  0.56409418
   0.55646426  0.66568170  0.55300761
   0.10948350  0.66280927  0.77180659
   0.09489149  0.43098347  0.55988090
   0.55446666  0.88101219  0.77503585
   0.33712104  0.42755883  0.76218679
   0.77294416  0.76540978  0.89129041
   0.65568633  0.09508923  0.23095779
   0.33188942  0.89912332  0.55648614
   0.56061837  0.02340700  0.03670137
   0.31892811  0.67127411  0.47924415
   0.78993441  0.60568479  0.75147100
   0.73755086  0.24007658  0.70513880
   0.74758676  0.35627807  0.68936340
 
 position of ions in cartesian coordinates  (Angst):
  11.61699398  1.15031074  1.74549045
  -4.59899268 10.52635876 13.02420718
   6.79169452  9.41396537  1.89827551
  -0.03405275  2.31589516 12.79303182
   1.96998694  1.22750650  1.70572980
   4.77889230 10.69602225 13.01435133
   4.66988230  5.05662833  6.73862231
   8.84529076  2.76489627  3.24068443
   6.78660142  1.68442633  6.95833345
   6.79553374  6.38068998  3.04349452
   8.90441127  5.03499524  6.83160473
   4.74301117  2.79885061  2.70874980
  -2.13465106  9.18002092 11.46403236
   1.91817933  6.74739877  7.73876132
   0.10114939  5.33955378 11.42934767
   0.04784237 10.08081463  7.83011632
   2.11016557  8.95900051 11.88807276
  -2.13232423  6.63194992  7.87719352
  11.20096728  3.73566483  2.37728296
  -4.28303560  7.92886707 12.42498477
   4.67325971  7.97434154  2.55833867
   2.11755576  3.74569124 12.08743237
   4.24327825  0.18236905  2.64922215
   2.37939479 11.61787614 12.19477386
  -2.28183039 11.68349858 12.38102327
   9.23076420  0.04664695  2.39258950
   4.59587315  7.96536929 11.99348069
   2.32953253  3.82687244  2.33414462
  -2.05340883  3.98379810 12.28470359
   8.91537114  7.94198175  2.56051669
   4.46830556  7.59597102  7.44537490
  -2.10034101 11.77290240  7.02237744
  11.29398729  4.00109377  7.35850220
   2.21657126  4.14629693  7.11310046
   9.09212259  7.61376108  7.45290949
   8.83558163  0.09578848  7.61320525
  -0.05483232  2.87311109  1.91328551
   7.01160012  8.91704927 12.61442275
   4.39866941 10.39660184  1.62988200
   2.40171518  1.28624656 12.86449332
  -4.49133942 10.45336113  1.88005469
  11.13873268  1.45313813 12.69153583
   6.78787419  6.58775740  6.90797486
   6.73174723  1.02467423  2.58628789
   4.25350963  2.49116690  6.91189196
   9.23800748  5.36619595  2.88680725
   9.31619772  2.44474198  6.67897326
   4.35281503  5.40276350  2.88473810
   0.01902761 10.58257985 11.92356984
  -0.05778194  5.07317887  7.97068538
  -2.14336981  6.57256988 11.83835797
   2.53996145  9.33307136  7.67889574
   2.51135645  6.33458819 11.82441989
  -2.54025740  9.19470329  8.03883489
  11.88457722  3.05928318 14.69312186
   8.55720937  8.62570703  0.04466162
   5.16815380  8.43964017 14.75953491
   1.68223897  3.15213007 14.64402866
   3.69656921  0.02850457  0.06895771
   5.01379471  6.98167201  4.93664209
   8.29850928  0.57465324  5.04539849
   5.29386370  1.29288168  4.80583553
   8.57983282  6.92245240  4.95405774
  10.47341974  4.10449647  4.87578051
   3.33902869  3.81991386  4.76487043
  -1.58342021 11.24099747  9.85116491
   2.01962667  4.85465188  9.66559341
  -1.96226878  4.81634306  9.82711751
   1.73405221 10.62345495  9.85129577
   3.24873599  7.81309176  9.76060401
  -3.64217615  7.58910288  9.90030027
   9.91861363  0.14127620 14.67367959
   7.28472076  5.28036441  9.98973455
  12.06441870  2.69636206  1.50139357
  -5.17652647  9.02316128 13.24043202
   5.25618543  9.03878129  1.47206469
   1.53500133  2.62300768 13.11251817
   3.05107161  0.02087370  1.57393382
  10.53027463  0.00915147 13.13292482
  -3.62082886 11.79528474 13.27700138
   3.68689026 11.81757770  1.45752725
   1.48861289  2.76145621  1.45143600
  12.08837433  2.68428451 13.13368815
   8.34690144  9.10644268  1.58667726
   5.23778557  6.54807549  6.47521748
   5.27379483  1.30576281  6.43329957
   8.37404614  6.64099037  3.36177947
   9.97625856  3.87730064  6.40049525
   3.70324038  3.95715941  3.18534110
   9.90511100  3.94888875  3.34037687
   3.63366111  3.86312519  6.35757327
   5.26178459  1.32505992  3.19995088
   8.35075063  6.52894897  6.50603408
   5.22431490  6.68358878  3.34941758
   8.29182888  1.18922675  6.52128292
  -1.51036016 10.68796442 11.34364844
   1.54544594  5.17891415  8.14708328
  -1.50542702  5.17418963 11.34992613
   1.55656703 10.52153768  8.23987316
   3.11863652  7.77771966 11.38134370
  -3.23907257  7.80782431  8.32997891
   3.05805022  7.88360018  8.16626344
  -3.03477161  7.84958227 11.39726806
  -1.64920840  5.10409311  8.26776129
   1.55841082 10.43373707 11.44495461
   1.68669678  5.06353547 11.25521249
   5.33652207  9.06466958 13.16168567
   8.31633807  1.12613197  3.41055371
  -1.60916789 10.64822536  8.21763092
   7.50641100  0.27720666  0.54196920
  -0.22849490  7.94983054  7.07699852
   6.66098337  7.17306295 11.09697243
   8.44448454  2.84320236 10.41278474
   7.78719777  4.21936473 10.17982942
 


--------------------------------------------------------------------------------------------------------


 k-point  1 :   0.0000 0.0000 0.0000  plane waves:   43405

 maximum and minimum number of plane-waves per node :     10852    10850

 maximum number of plane-waves:     43405
 maximum index in each direction: 
   IXMAX=   22   IYMAX=   22   IZMAX=   24
   IXMIN=  -22   IYMIN=  -22   IZMIN=  -24


 real space projection operators:
  total allocation   :      30726.72 KBytes
  max/ min on nodes  :       7846.38       7512.44


 parallel 3D FFT for wavefunctions:
    minimum data exchange during FFTs selected (reduces bandwidth)
 parallel 3D FFT for charge:
    minimum data exchange during FFTs selected (reduces bandwidth)


 total amount of memory used by VASP MPI-rank0   214856. kBytes
=======================================================================

   base      :      30000. kBytes
   nonlr-proj:      18786. kBytes
   fftplans  :      63994. kBytes
   grid      :      62827. kBytes
   one-center:        902. kBytes
   wavefun   :      38347. kBytes
 
     INWAV:  cpu time    0.0000: real time    0.0002
 Broyden mixing: mesh for mixing (old mesh)
   NGX = 45   NGY = 45   NGZ = 49
  (NGX  =180   NGY  =180   NGZ  =192)
  gives a total of  99225 points

 initial charge density was supplied:
 charge density of overlapping atoms calculated
 number of electron     622.0000000 magnetization     114.0000000
 keeping initial charge density in first step


--------------------------------------------------------------------------------------------------------


 Maximum index for non-local projection operator         1313
 Maximum index for augmentation-charges         7873 (set IRDMAX)


--------------------------------------------------------------------------------------------------------


 First call to EWALD:  gamma=   0.133
 Maximum number of real-space cells 3x 3x 3
 Maximum number of reciprocal cells 3x 3x 3

    FEWALD:  cpu time    0.0078: real time    0.0078


--------------------------------------- Iteration      1(   1)  ---------------------------------------


    POTLOK:  cpu time    0.6151: real time    0.6340
    SETDIJ:  cpu time    0.8005: real time    0.8024
     EDDAV:  cpu time   14.6481: real time   14.6834
       DOS:  cpu time    0.0007: real time    0.0007
    --------------------------------------------
      LOOP:  cpu time   16.0644: real time   16.1206

 eigenvalue-minimisations  :  1800
 total energy-change (2. order) : 0.4378220E+04  (-0.2598248E+05)
 number of electron     622.0000000 magnetization     114.0000000
 augmentation part      622.0000000 magnetization     114.0000000

 Free energy of the ion-electron system (eV)
  ---------------------------------------------------
  alpha Z        PSCENC =       648.78857340
  Ewald energy   TEWEN  =     -6771.26375380
  -Hartree energ DENC   =    -28493.20691749
  -exchange      EXHF   =         0.00000000
  -V(xc)+E(xc)   XCENC  =      1672.73130910
  PAW double counting   =     21889.73376938   -21206.52504692
  entropy T*S    EENTRO =        -0.02561529
  eigenvalues    EBANDS =     -2015.16880337
  atomic energy  EATOM  =     38653.15601086
  Solvation  Ediel_sol  =         0.00000000
  ---------------------------------------------------
  free energy    TOTEN  =      4378.21952587 eV

  energy without entropy =     4378.24514116  energy(sigma->0) =     4378.23233351


--------------------------------------------------------------------------------------------------------




--------------------------------------- Iteration      1(   2)  ---------------------------------------


     EDDAV:  cpu time   17.1182: real time   17.1776
       DOS:  cpu time    0.0004: real time    0.0004
    --------------------------------------------
      LOOP:  cpu time   17.1185: real time   17.1780

 eigenvalue-minimisations  :  2112
 total energy-change (2. order) :-0.4804255E+04  (-0.4623689E+04)
 number of electron     622.0000000 magnetization     114.0000000
 augmentation part      622.0000000 magnetization     114.0000000

 Free energy of the ion-electron system (eV)
  ---------------------------------------------------
  alpha Z        PSCENC =       648.78857340
  Ewald energy   TEWEN  =     -6771.26375380
  -Hartree energ DENC   =    -28493.20691749
  -exchange      EXHF   =         0.00000000
  -V(xc)+E(xc)   XCENC  =      1672.73130910
  PAW double counting   =     21889.73376938   -21206.52504692
  entropy T*S    EENTRO =        -0.00000000
  eigenvalues    EBANDS =     -6819.44921818
  atomic energy  EATOM  =     38653.15601086
  Solvation  Ediel_sol  =         0.00000000
  ---------------------------------------------------
  free energy    TOTEN  =      -426.03527365 eV

  energy without entropy =     -426.03527365  energy(sigma->0) =     -426.03527365


--------------------------------------------------------------------------------------------------------




--------------------------------------- Iteration      1(   3)  ---------------------------------------


     EDDAV:  cpu time   17.0356: real time   17.0777
       DOS:  cpu time    0.0003: real time    0.0003
    --------------------------------------------
      LOOP:  cpu time   17.0359: real time   17.0780

 eigenvalue-minimisations  :  2104
 total energy-change (2. order) :-0.5192372E+03  (-0.5155962E+03)
 number of electron     622.0000000 magnetization     114.0000000
 augmentation part      622.0000000 magnetization     114.0000000

 Free energy of the ion-electron system (eV)
  ---------------------------------------------------
  alpha Z        PSCENC =       648.78857340
  Ewald energy   TEWEN  =     -6771.26375380
  -Hartree energ DENC   =    -28493.20691749
  -exchange      EXHF   =         0.00000000
  -V(xc)+E(xc)   XCENC  =      1672.73130910
  PAW double counting   =     21889.73376938   -21206.52504692
  entropy T*S    EENTRO =        -0.00000000
  eigenvalues    EBANDS =     -7338.68637073
  atomic energy  EATOM  =     38653.15601086
  Solvation  Ediel_sol  =         0.00000000
  ---------------------------------------------------
  free energy    TOTEN  =      -945.27242620 eV

  energy without entropy =     -945.27242620  energy(sigma->0) =     -945.27242620


--------------------------------------------------------------------------------------------------------




--------------------------------------- Iteration      1(   4)  ---------------------------------------


     EDDAV:  cpu time   17.2944: real time   17.3501
       DOS:  cpu time    0.0003: real time    0.0003
    --------------------------------------------
      LOOP:  cpu time   17.2948: real time   17.3504

 eigenvalue-minimisations  :  2152
 total energy-change (2. order) :-0.1046893E+02  (-0.1042864E+02)
 number of electron     622.0000000 magnetization     114.0000000
 augmentation part      622.0000000 magnetization     114.0000000

 Free energy of the ion-electron system (eV)
  ---------------------------------------------------
  alpha Z        PSCENC =       648.78857340
  Ewald energy   TEWEN  =     -6771.26375380
  -Hartree energ DENC   =    -28493.20691749
  -exchange      EXHF   =         0.00000000
  -V(xc)+E(xc)   XCENC  =      1672.73130910
  PAW double counting   =     21889.73376938   -21206.52504692
  entropy T*S    EENTRO =        -0.00000000
  eigenvalues    EBANDS =     -7349.15530478
  atomic energy  EATOM  =     38653.15601086
  Solvation  Ediel_sol  =         0.00000000
  ---------------------------------------------------
  free energy    TOTEN  =      -955.74136025 eV

  energy without entropy =     -955.74136025  energy(sigma->0) =     -955.74136025


--------------------------------------------------------------------------------------------------------




--------------------------------------- Iteration      1(   5)  ---------------------------------------


     EDDAV:  cpu time   17.3468: real time   17.3909
       DOS:  cpu time    0.0003: real time    0.0003
    CHARGE:  cpu time    1.4300: real time    1.4334
    MIXING:  cpu time    0.0115: real time    0.0116
    --------------------------------------------
      LOOP:  cpu time   18.7886: real time   18.8362

 eigenvalue-minimisations  :  2144
 total energy-change (2. order) :-0.2744939E+00  (-0.2741491E+00)
 number of electron     622.0000002 magnetization      86.0401199
 augmentation part       69.6705373 magnetization      87.2362110

 Broyden mixing:
  rms(total) = 0.86798E+01    rms(broyden)= 0.86756E+01
  rms(prec ) = 0.94814E+01
  weight for this iteration     100.00

 Free energy of the ion-electron system (eV)
  ---------------------------------------------------
  alpha Z        PSCENC =       648.78857340
  Ewald energy   TEWEN  =     -6771.26375380
  -Hartree energ DENC   =    -28493.20691749
  -exchange      EXHF   =         0.00000000
  -V(xc)+E(xc)   XCENC  =      1672.73130910
  PAW double counting   =     21889.73376938   -21206.52504692
  entropy T*S    EENTRO =        -0.00000000
  eigenvalues    EBANDS =     -7349.42979866
  atomic energy  EATOM  =     38653.15601086
  Solvation  Ediel_sol  =         0.00000000
  ---------------------------------------------------
  free energy    TOTEN  =      -956.01585413 eV

  energy without entropy =     -956.01585413  energy(sigma->0) =     -956.01585413


--------------------------------------------------------------------------------------------------------




--------------------------------------- Iteration      1(   6)  ---------------------------------------


    POTLOK:  cpu time    0.6151: real time    0.6200
    SETDIJ:  cpu time    0.6919: real time    0.6936
     EDDAV:  cpu time   16.1607: real time   16.2077
       DOS:  cpu time    0.0003: real time    0.0003
    CHARGE:  cpu time    1.3749: real time    1.3782
    MIXING:  cpu time    0.0121: real time    0.0121
    --------------------------------------------
      LOOP:  cpu time   18.8550: real time   18.9119

 eigenvalue-minimisations  :  2000
 total energy-change (2. order) : 0.3515602E+03  (-0.7170913E+02)
 number of electron     622.0000002 magnetization      63.2473241
 augmentation part       61.6245157 magnetization      59.2860379

 Broyden mixing:
  rms(total) = 0.28044E+01    rms(broyden)= 0.28007E+01
  rms(prec ) = 0.30361E+01
  weight for this iteration     100.00

 eigenvalues of (default mixing * dielectric matrix)
  average eigenvalue GAMMA=   1.0020
  1.0020

 Free energy of the ion-electron system (eV)
  ---------------------------------------------------
  alpha Z        PSCENC =       648.78857340
  Ewald energy   TEWEN  =     -6771.26375380
  -Hartree energ DENC   =    -29888.54975731
  -exchange      EXHF   =         0.00000000
  -V(xc)+E(xc)   XCENC  =      1926.16417581
  PAW double counting   =     25665.31687017   -25005.23699680
  entropy T*S    EENTRO =        -0.00000000
  eigenvalues    EBANDS =     -5832.83078828
  atomic energy  EATOM  =     38653.15601086
  Solvation  Ediel_sol  =         0.00000000
  ---------------------------------------------------
  free energy    TOTEN  =      -604.45566594 eV

  energy without entropy =     -604.45566594  energy(sigma->0) =     -604.45566594


--------------------------------------------------------------------------------------------------------




--------------------------------------- Iteration      1(   7)  ---------------------------------------


    POTLOK:  cpu time    0.6060: real time    0.6096
    SETDIJ:  cpu time    0.6756: real time    0.6772
     EDDAV:  cpu time   16.5213: real time   16.5782
       DOS:  cpu time    0.0003: real time    0.0003
    CHARGE:  cpu time    1.3979: real time    1.4013
    MIXING:  cpu time    0.0130: real time    0.0130
    --------------------------------------------
      LOOP:  cpu time   19.2141: real time   19.2796

 eigenvalue-minimisations  :  2056
 total energy-change (2. order) :-0.8878183E+02  (-0.8247437E+01)
 number of electron     622.0000002 magnetization      42.0434989
 augmentation part       59.0566947 magnetization      38.5101021

 Broyden mixing:
  rms(total) = 0.19246E+01    rms(broyden)= 0.19240E+01
  rms(prec ) = 0.20234E+01
  weight for this iteration     100.00

 eigenvalues of (default mixing * dielectric matrix)
  average eigenvalue GAMMA=   1.0488
  1.0488  1.0488

 Free energy of the ion-electron system (eV)
  ---------------------------------------------------
  alpha Z        PSCENC =       648.78857340
  Ewald energy   TEWEN  =     -6771.26375380
  -Hartree energ DENC   =    -30325.14938100
  -exchange      EXHF   =         0.00000000
  -V(xc)+E(xc)   XCENC  =      1887.72466556
  PAW double counting   =     27063.92461316   -26406.49762401
  entropy T*S    EENTRO =        -0.00000000
  eigenvalues    EBANDS =     -5443.92060259
  atomic energy  EATOM  =     38653.15601086
  Solvation  Ediel_sol  =         0.00000000
  ---------------------------------------------------
  free energy    TOTEN  =      -693.23749843 eV

  energy without entropy =     -693.23749843  energy(sigma->0) =     -693.23749843


--------------------------------------------------------------------------------------------------------




--------------------------------------- Iteration      1(   8)  ---------------------------------------


    POTLOK:  cpu time    0.5861: real time    0.5949
    SETDIJ:  cpu time    0.6720: real time    0.6736
     EDDAV:  cpu time   16.3501: real time   16.3900
       DOS:  cpu time    0.0003: real time    0.0003
    CHARGE:  cpu time    1.4032: real time    1.4066
    MIXING:  cpu time    0.0115: real time    0.0115
    --------------------------------------------
      LOOP:  cpu time   19.0232: real time   19.0769

 eigenvalue-minimisations  :  2032
 total energy-change (2. order) :-0.7036719E+02  (-0.3094890E+01)
 number of electron     622.0000002 magnetization      18.8019624
 augmentation part       59.3536992 magnetization      16.2661467

 Broyden mixing:
  rms(total) = 0.10965E+01    rms(broyden)= 0.10963E+01
  rms(prec ) = 0.11410E+01
  weight for this iteration     100.00

 eigenvalues of (default mixing * dielectric matrix)
  average eigenvalue GAMMA=   1.3913
  2.2701  1.1855  0.7185

 Free energy of the ion-electron system (eV)
  ---------------------------------------------------
  alpha Z        PSCENC =       648.78857340
  Ewald energy   TEWEN  =     -6771.26375380
  -Hartree energ DENC   =    -30402.56812171
  -exchange      EXHF   =         0.00000000
  -V(xc)+E(xc)   XCENC  =      1840.82978144
  PAW double counting   =     27485.80851114   -26826.58070428
  entropy T*S    EENTRO =        -0.00000000
  eigenvalues    EBANDS =     -5391.77498269
  atomic energy  EATOM  =     38653.15601086
  Solvation  Ediel_sol  =         0.00000000
  ---------------------------------------------------
  free energy    TOTEN  =      -763.60468563 eV

  energy without entropy =     -763.60468563  energy(sigma->0) =     -763.60468563


--------------------------------------------------------------------------------------------------------




--------------------------------------- Iteration      1(   9)  ---------------------------------------


    POTLOK:  cpu time    0.5895: real time    0.5994
    SETDIJ:  cpu time    0.6637: real time    0.6653
     EDDAV:  cpu time   16.2099: real time   16.2492
       DOS:  cpu time    0.0003: real time    0.0003
    CHARGE:  cpu time    1.4041: real time    1.4075
    MIXING:  cpu time    0.0252: real time    0.0253
    --------------------------------------------
      LOOP:  cpu time   18.8927: real time   18.9470

 eigenvalue-minimisations  :  2032
 total energy-change (2. order) :-0.7663332E+02  (-0.5746868E+01)
 number of electron     622.0000002 magnetization      13.4941161
 augmentation part       59.2412404 magnetization      12.2173058

 Broyden mixing:
  rms(total) = 0.49040E+00    rms(broyden)= 0.48969E+00
  rms(prec ) = 0.51481E+00
  weight for this iteration     100.00

 eigenvalues of (default mixing * dielectric matrix)
  average eigenvalue GAMMA=   1.2890
  2.4540  1.2385  0.7317  0.7317

 Free energy of the ion-electron system (eV)
  ---------------------------------------------------
  alpha Z        PSCENC =       648.78857340
  Ewald energy   TEWEN  =     -6771.26375380
  -Hartree energ DENC   =    -30520.37924143
  -exchange      EXHF   =         0.00000000
  -V(xc)+E(xc)   XCENC  =      1795.29201135
  PAW double counting   =     27919.76916436   -27259.80274963
  entropy T*S    EENTRO =        -0.00000000
  eigenvalues    EBANDS =     -5305.79801780
  atomic energy  EATOM  =     38653.15601086
  Solvation  Ediel_sol  =         0.00000000
  ---------------------------------------------------
  free energy    TOTEN  =      -840.23800269 eV

  energy without entropy =     -840.23800269  energy(sigma->0) =     -840.23800269


--------------------------------------------------------------------------------------------------------




--------------------------------------- Iteration      1(  10)  ---------------------------------------


    POTLOK:  cpu time    0.6033: real time    0.6139
    SETDIJ:  cpu time    0.6821: real time    0.6838
     EDDAV:  cpu time   16.8563: real time   16.9002
       DOS:  cpu time    0.0003: real time    0.0003
    CHARGE:  cpu time    1.3934: real time    1.3967
    MIXING:  cpu time    0.0127: real time    0.0128
    --------------------------------------------
      LOOP:  cpu time   19.5481: real time   19.6076

 eigenvalue-minimisations  :  2112
 total energy-change (2. order) :-0.1399855E+02  (-0.8479587E+00)
 number of electron     622.0000002 magnetization       4.9161234
 augmentation part       58.8824255 magnetization       4.1336728

 Broyden mixing:
  rms(total) = 0.35538E+00    rms(broyden)= 0.35493E+00
  rms(prec ) = 0.37870E+00
  weight for this iteration     100.00

 eigenvalues of (default mixing * dielectric matrix)
  average eigenvalue GAMMA=   1.4600
  2.7238  2.0263  0.9499  0.9499  0.6502

 Free energy of the ion-electron system (eV)
  ---------------------------------------------------
  alpha Z        PSCENC =       648.78857340
  Ewald energy   TEWEN  =     -6771.26375380
  -Hartree energ DENC   =    -30530.42565933
  -exchange      EXHF   =         0.00000000
  -V(xc)+E(xc)   XCENC  =      1787.97888271
  PAW double counting   =     27905.57235553   -27245.79709592
  entropy T*S    EENTRO =        -0.00000000
  eigenvalues    EBANDS =     -5302.24586807
  atomic energy  EATOM  =     38653.15601086
  Solvation  Ediel_sol  =         0.00000000
  ---------------------------------------------------
  free energy    TOTEN  =      -854.23655462 eV

  energy without entropy =     -854.23655462  energy(sigma->0) =     -854.23655462


--------------------------------------------------------------------------------------------------------




--------------------------------------- Iteration      1(  11)  ---------------------------------------


    POTLOK:  cpu time    0.6002: real time    0.6027
    SETDIJ:  cpu time    0.6931: real time    0.6948
     EDDAV:  cpu time   15.4371: real time   15.5620
       DOS:  cpu time    0.0003: real time    0.0003
    CHARGE:  cpu time    1.3903: real time    1.3999
    MIXING:  cpu time    0.0129: real time    0.0129
    --------------------------------------------
      LOOP:  cpu time   18.1340: real time   18.2726

 eigenvalue-minimisations  :  1920
 total energy-change (2. order) :-0.1693839E+02  (-0.1235567E+01)
 number of electron     622.0000002 magnetization       2.5544007
 augmentation part       58.9089921 magnetization       2.3298920

 Broyden mixing:
  rms(total) = 0.17125E+00    rms(broyden)= 0.17076E+00
  rms(prec ) = 0.18353E+00
  weight for this iteration     100.00

 eigenvalues of (default mixing * dielectric matrix)
  average eigenvalue GAMMA=   1.4261
  3.2251  1.9993  1.1558  0.7675  0.7675  0.6413

 Free energy of the ion-electron system (eV)
  ---------------------------------------------------
  alpha Z        PSCENC =       648.78857340
  Ewald energy   TEWEN  =     -6771.26375380
  -Hartree energ DENC   =    -30469.23745639
  -exchange      EXHF   =         0.00000000
  -V(xc)+E(xc)   XCENC  =      1773.48325033
  PAW double counting   =     27688.89802067   -27028.32986710
  entropy T*S    EENTRO =        -0.00000000
  eigenvalues    EBANDS =     -5366.66972232
  atomic energy  EATOM  =     38653.15601086
  Solvation  Ediel_sol  =         0.00000000
  ---------------------------------------------------
  free energy    TOTEN  =      -871.17494434 eV

  energy without entropy =     -871.17494434  energy(sigma->0) =     -871.17494434


--------------------------------------------------------------------------------------------------------




--------------------------------------- Iteration      1(  12)  ---------------------------------------


    POTLOK:  cpu time    0.6054: real time    0.6152
    SETDIJ:  cpu time    0.6756: real time    0.6772
     EDDAV:  cpu time   15.6982: real time   15.7415
       DOS:  cpu time    0.0003: real time    0.0003
    CHARGE:  cpu time    1.3907: real time    1.3940
    MIXING:  cpu time    0.0128: real time    0.0129
    --------------------------------------------
      LOOP:  cpu time   18.3831: real time   18.4411

 eigenvalue-minimisations  :  1976
 total energy-change (2. order) :-0.2014718E+01  (-0.1123202E+00)
 number of electron     622.0000002 magnetization       0.9644994
 augmentation part       58.8120656 magnetization       0.8407171

 Broyden mixing:
  rms(total) = 0.92901E-01    rms(broyden)= 0.92774E-01
  rms(prec ) = 0.10869E+00
  weight for this iteration     100.00

 eigenvalues of (default mixing * dielectric matrix)
  average eigenvalue GAMMA=   1.4884
  3.6758  2.2466  1.3087  0.9435  0.9435  0.6764  0.6243

 Free energy of the ion-electron system (eV)
  ---------------------------------------------------
  alpha Z        PSCENC =       648.78857340
  Ewald energy   TEWEN  =     -6771.26375380
  -Hartree energ DENC   =    -30460.85555822
  -exchange      EXHF   =         0.00000000
  -V(xc)+E(xc)   XCENC  =      1771.98503208
  PAW double counting   =     27684.51541019   -27024.09158880
  entropy T*S    EENTRO =        -0.00000000
  eigenvalues    EBANDS =     -5375.42378768
  atomic energy  EATOM  =     38653.15601086
  Solvation  Ediel_sol  =         0.00000000
  ---------------------------------------------------
  free energy    TOTEN  =      -873.18966197 eV

  energy without entropy =     -873.18966197  energy(sigma->0) =     -873.18966197


--------------------------------------------------------------------------------------------------------




--------------------------------------- Iteration      1(  13)  ---------------------------------------


    POTLOK:  cpu time    0.5976: real time    0.6006
    SETDIJ:  cpu time    0.6847: real time    0.6863
     EDDAV:  cpu time   15.5322: real time   15.6051
       DOS:  cpu time    0.0003: real time    0.0003
    CHARGE:  cpu time    1.3844: real time    1.3877
    MIXING:  cpu time    0.0134: real time    0.0134
    --------------------------------------------
      LOOP:  cpu time   18.2126: real time   18.2934

 eigenvalue-minimisations  :  1912
 total energy-change (2. order) :-0.9525125E+00  (-0.3999375E-01)
 number of electron     622.0000002 magnetization       0.3820874
 augmentation part       58.8559548 magnetization       0.3287367

 Broyden mixing:
  rms(total) = 0.43426E-01    rms(broyden)= 0.43356E-01
  rms(prec ) = 0.53794E-01
  weight for this iteration     100.00

 eigenvalues of (default mixing * dielectric matrix)
  average eigenvalue GAMMA=   1.4730
  3.8713  2.3434  1.3579  1.1079  0.9030  0.9030  0.6671  0.6303

 Free energy of the ion-electron system (eV)
  ---------------------------------------------------
  alpha Z        PSCENC =       648.78857340
  Ewald energy   TEWEN  =     -6771.26375380
  -Hartree energ DENC   =    -30437.14972562
  -exchange      EXHF   =         0.00000000
  -V(xc)+E(xc)   XCENC  =      1770.07880382
  PAW double counting   =     27653.50857036   -26993.07565228
  entropy T*S    EENTRO =        -0.00000000
  eigenvalues    EBANDS =     -5398.18500124
  atomic energy  EATOM  =     38653.15601086
  Solvation  Ediel_sol  =         0.00000000
  ---------------------------------------------------
  free energy    TOTEN  =      -874.14217450 eV

  energy without entropy =     -874.14217450  energy(sigma->0) =     -874.14217450


--------------------------------------------------------------------------------------------------------




--------------------------------------- Iteration      1(  14)  ---------------------------------------


    POTLOK:  cpu time    0.6077: real time    0.6150
    SETDIJ:  cpu time    0.7036: real time    0.7053
     EDDAV:  cpu time   15.3727: real time   15.4100
       DOS:  cpu time    0.0004: real time    0.0004
    CHARGE:  cpu time    1.3753: real time    1.3786
    MIXING:  cpu time    0.0146: real time    0.0146
    --------------------------------------------
      LOOP:  cpu time   18.0742: real time   18.1238

 eigenvalue-minimisations  :  1928
 total energy-change (2. order) :-0.2015787E+00  (-0.8195009E-02)
 number of electron     622.0000002 magnetization       0.1543683
 augmentation part       58.8625051 magnetization       0.1366611

 Broyden mixing:
  rms(total) = 0.25640E-01    rms(broyden)= 0.25614E-01
  rms(prec ) = 0.33153E-01
  weight for this iteration     100.00

 eigenvalues of (default mixing * dielectric matrix)
  average eigenvalue GAMMA=   1.4584
  3.9304  2.3042  1.6702  1.0854  1.0854  0.8757  0.8757  0.6591  0.6394

 Free energy of the ion-electron system (eV)
  ---------------------------------------------------
  alpha Z        PSCENC =       648.78857340
  Ewald energy   TEWEN  =     -6771.26375380
  -Hartree energ DENC   =    -30426.28857459
  -exchange      EXHF   =         0.00000000
  -V(xc)+E(xc)   XCENC  =      1769.45037179
  PAW double counting   =     27648.51300402   -26988.10632794
  entropy T*S    EENTRO =        -0.00000000
  eigenvalues    EBANDS =     -5408.59305691
  atomic energy  EATOM  =     38653.15601086
  Solvation  Ediel_sol  =         0.00000000
  ---------------------------------------------------
  free energy    TOTEN  =      -874.34375316 eV

  energy without entropy =     -874.34375316  energy(sigma->0) =     -874.34375316


--------------------------------------------------------------------------------------------------------




--------------------------------------- Iteration      1(  15)  ---------------------------------------


    POTLOK:  cpu time    0.6041: real time    0.6068
    SETDIJ:  cpu time    0.6836: real time    0.6852
     EDDAV:  cpu time   16.1018: real time   16.1470
       DOS:  cpu time    0.0003: real time    0.0003
    CHARGE:  cpu time    1.3783: real time    1.3816
    MIXING:  cpu time    0.0142: real time    0.0142
    --------------------------------------------
      LOOP:  cpu time   18.7822: real time   18.8351

 eigenvalue-minimisations  :  2024
 total energy-change (2. order) :-0.1699611E-01  (-0.1513516E-02)
 number of electron     622.0000002 magnetization       0.0558265
 augmentation part       58.8515453 magnetization       0.0481946

 Broyden mixing:
  rms(total) = 0.13239E-01    rms(broyden)= 0.13219E-01
  rms(prec ) = 0.17764E-01
  weight for this iteration     100.00

 eigenvalues of (default mixing * dielectric matrix)
  average eigenvalue GAMMA=   1.4863
  4.0027  2.3752  2.3752  1.1467  1.1467  0.8925  0.8925  0.7485  0.6509  0.6318

 Free energy of the ion-electron system (eV)
  ---------------------------------------------------
  alpha Z        PSCENC =       648.78857340
  Ewald energy   TEWEN  =     -6771.26375380
  -Hartree energ DENC   =    -30421.44502675
  -exchange      EXHF   =         0.00000000
  -V(xc)+E(xc)   XCENC  =      1769.31852209
  PAW double counting   =     27659.79315450   -26999.43338083
  entropy T*S    EENTRO =        -0.00000000
  eigenvalues    EBANDS =     -5413.27484874
  atomic energy  EATOM  =     38653.15601086
  Solvation  Ediel_sol  =         0.00000000
  ---------------------------------------------------
  free energy    TOTEN  =      -874.36074927 eV

  energy without entropy =     -874.36074927  energy(sigma->0) =     -874.36074927


--------------------------------------------------------------------------------------------------------




--------------------------------------- Iteration      1(  16)  ---------------------------------------
[...]
      -0.000273006937197       0.000494941945322      -0.000047289046644
      -0.000403173579577       0.000145691976706      -0.001086704321922
       0.000120163796627       0.000414575198041       0.000239105744324
      -0.001345555092937      -0.000464521431471      -0.001193039518342
       0.000660757902899       0.000355558365292      -0.000568293047990
       0.000812512407996      -0.000001982311138      -0.000291886666058
       0.000407883924033       0.000591691868328       0.000988162349481
       0.000696578132927      -0.000438595466596      -0.000630171996130
       0.001526923942629       0.000056265221477       0.001134558736770
      -0.000028421821999       0.000015151411454      -0.002180154032638
       0.000434600157044      -0.000075026537176       0.000422463412943
      -0.000285733493358      -0.000167713909058       0.000123063694776
       0.001869963090452       0.001235675938603       0.000376957980291
       0.000972154272644       0.000119532161693      -0.000722000630660
      -0.000954896841074       0.000658892627905       0.000317622839998
       0.000721538719137       0.000133804428729       0.000369426504508
       0.000690711174281       0.000544874078724      -0.000622349565201
       0.000138204637317       0.001520927402906       0.000258411807190
       0.000271295908487      -0.000373246402584      -0.000000645441289
      -0.000076433558398       0.000197198103475      -0.000406503348056
      -0.000274464086414       0.001027350393817      -0.000141335276085
       0.000136879685061       0.000541625083153      -0.000806848408581
       0.000021333741885       0.000548764692354      -0.000259612834532
       0.000800299130139       0.000492363669059       0.000442904776659
       0.000317199031514      -0.000060080239288      -0.000047823653468
      -0.000820607966592      -0.000199737630894       0.000756013451325
       0.001520774703137       0.000433530455604      -0.001836640664153
       0.000543389332236      -0.001808129645085      -0.000557595216863
      -0.000140669627778       0.000753545769678       0.000051758845419
       0.000856756960137       0.000730569119805      -0.001006094847186
      -0.000290427994331      -0.000071813856668      -0.000483344310271
       0.000302628907614       0.000372565403335      -0.000438428810237
       0.000725718495750      -0.000424380982808      -0.000055802866990
       0.000552016529291       0.000486088792729       0.000105533708538
       0.000934127540454      -0.000203109367803      -0.000020322629929
       0.000596782569324       0.001265740542003       0.000956657312843
      -0.000190988051125      -0.001203369656156       0.000648153122510
      -0.000727662935215       0.000044700476446       0.000265796129497
      -0.000630070379264       0.000103392965556       0.001124587654589
       0.001595659628716       0.000244249398833      -0.000750380917744
      -0.000150825245848       0.000294857388422      -0.000288362367198
       0.000183835025095       0.000592168203042      -0.000299824432642
      -0.001199260789597      -0.000985434883298       0.001657836515405
       0.001043379544696      -0.000227562900980       0.000641527106379
      -0.001849092442600       0.000338132965791      -0.001494509492438
       0.002801322532956       0.001061656233997       0.000290027010405
      -0.000693271309604       0.000043014267835      -0.000189198098013
       0.000717355662134       0.000733919911026       0.000572063313619
       0.000732091000772       0.001579475962373      -0.000025864835030
       0.000703771958810       0.000837238445814       0.000038366536554
       0.000087439799744       0.000183227057357       0.001184276882645
       0.000264003281750       0.000514669309076       0.000412696066476
      -0.000031274624037      -0.000567374005459       0.001323892147191
      -0.000663007019566      -0.000821586218171      -0.000208197683987
       0.001314671573137       0.000949473238802       0.000541258640437
       0.001147596172501       0.000064697169405      -0.001267896879386
      -0.000840441613820      -0.000643482067084      -0.000077194729818
      -0.000498202731545       0.000015028055713      -0.002020088966885
       0.000614067093794       0.000381919916685      -0.000808951990092
      -0.001202579132049      -0.000130320339272      -0.000631717438255
       0.000452836147057       0.000029666608853      -0.002148529655680
      -0.006249478557520      -0.016729208722840       0.010544415492102
       0.000364042536088      -0.001127355276807       0.000256983703703
       0.000157183047421       0.000667436817459       0.000466716989888
       0.001179753374539       0.000834237658165      -0.000734699973633
       0.000755039536194       0.000291005247745      -0.000532407271287
       0.000878104402727      -0.000068868646309      -0.000451786676914
      -0.000148341152068      -0.000184495691986      -0.000363619849020
       0.000809117461496       0.000865903782764       0.000340098060184
      -0.000107175773994       0.000023814772998      -0.000604171298313
       0.000737118853281      -0.000110981971607      -0.000555808405692
       0.001552716232267       0.000207928163850      -0.000244277206679
       0.000170324248818       0.000438687001372       0.000236811953955
       0.000172129552699       0.001196212636713      -0.001599649124943
      -0.000489632750416      -0.000164666977951      -0.000202737800237
       0.000443341200003       0.000670717371094      -0.000914979676777
      -0.000224592153325       0.000576116370783      -0.000502126827074
       0.000517736224014      -0.000562273838596      -0.000388065494462
      -0.000801511891970       0.000552797897016      -0.001168972249394
      -0.000217731658002       0.000058797225088      -0.000854188509044
      -0.000384773547390      -0.000048162504034      -0.000068765167132
      -0.000379908830055       0.001054803523199      -0.000825210709079
       0.001337509132740       0.000336026321475       0.000252777535454
      -0.000566793983994       0.000061939964685      -0.000248879339261
       0.001188372176251       0.001498410693449      -0.000371157282059
       0.000968988656938      -0.000241641010385       0.000899712360320
       0.001098037872554       0.000382818622884       0.000202386581238
      -0.000988354998515      -0.000075005322133       0.000458187738266
      -0.000119102443047       0.000330361879006       0.000361112275664
      -0.000468277356270       0.001599287865618       0.000677673691495
       0.000317901849353      -0.000248068918478       0.000427193363357
       0.000615066758510       0.000890245347661       0.000539951797595
       0.000639953842391       0.000219300794711       0.000617669120184
      -0.000004131566799      -0.000932615873686       0.000054535393984
       0.001329553010349      -0.000032581247844      -0.000149585126997
       0.001046452455428       0.000115898569466      -0.001607203630404
       0.000374005703430      -0.000154559597318      -0.001130072947001
       0.000220269440232       0.000839394116900       0.000299601287080
      -0.000096735146665      -0.000419999334149      -0.000001780452537
       0.000072484711753       0.000082925934480       0.000431599384595
       0.001657410827766      -0.002254378092328       0.001585847964607
      -0.007726214142621      -0.011758244237196       0.012053546917260
      -0.015866966611588       0.005449393805777      -0.005031182347283
DYMAT: ------------------------------
DYMAT: DEGREE OF FREEDOM  73  1  1
DYMAT: ------------------------------
DYMAT: DEGREE OF FREEDOM  73  2  2
DYMAT: ------------------------------
DYMAT: DEGREE OF FREEDOM  73  3  3
DYMAT: ------------------------------
DYMAT: DEGREE OF FREEDOM 113  1  4
DYMAT: ------------------------------
DYMAT: DEGREE OF FREEDOM 113  2  5
DYMAT: ------------------------------
DYMAT: DEGREE OF FREEDOM 113  3  6
DYMAT: ------------------------------
DYMAT: DEGREE OF FREEDOM 114  1  7
DYMAT: ------------------------------
DYMAT: DEGREE OF FREEDOM 114  2  8
DYMAT: ------------------------------
DYMAT: DEGREE OF FREEDOM 114  3  9
DYMAT: LEAVING
 stress matrix after NEB project (eV)
    -22.51625     -0.40940      0.40549
     -0.40940    -24.55366     -0.64906
      0.40549     -0.64906    -28.33718
  FORCES: max atom, RMS     0.020739    0.003346
  FORCE total and by dimension    0.035728    0.016729
  Stress total and by dimension   43.753473   28.337183


--------------------------------------------------------------------------------------------------------


     LOOP+:  cpu time  149.6514: real time  150.2010
    4ORBIT:  cpu time    0.0000: real time    0.0000
 


 total charge     
 
# of ion       s       p       d       tot
------------------------------------------
    1        1.573   3.695   0.000   5.269
    2        1.571   3.709   0.000   5.280
    3        1.576   3.699   0.000   5.275
    4        1.573   3.694   0.000   5.267
    5        1.572   3.703   0.000   5.275
    6        1.574   3.668   0.000   5.242
    7        1.575   3.708   0.000   5.283
    8        1.575   3.670   0.000   5.244
    9        1.577   3.671   0.000   5.248
   10        1.572   3.698   0.000   5.270
   11        1.575   3.696   0.000   5.270
   12        1.576   3.688   0.000   5.264
   13        1.569   3.716   0.000   5.285
   14        1.575   3.657   0.000   5.232
   15        1.571   3.720   0.000   5.290
   16        1.575   3.635   0.000   5.211
   17        1.574   3.686   0.000   5.260
   18        1.575   3.664   0.000   5.239
   19        1.573   3.708   0.000   5.281
   20        1.576   3.699   0.000   5.276
   21        1.577   3.700   0.000   5.277
   22        1.574   3.701   0.000   5.274
   23        1.577   3.701   0.000   5.278
   24        1.575   3.698   0.000   5.273
   25        1.574   3.702   0.000   5.276
   26        1.579   3.659   0.000   5.238
   27        1.575   3.649   0.000   5.224
   28        1.575   3.703   0.000   5.278
   29        1.575   3.711   0.000   5.286
   30        1.576   3.701   0.000   5.276
   31        1.576   3.709   0.000   5.285
   32        1.579   3.667   0.000   5.246
   33        1.576   3.700   0.000   5.277
   34        1.576   3.702   0.000   5.278
   35        1.576   3.705   0.000   5.281
   36        1.576   3.696   0.000   5.272
   37        1.573   3.711   0.000   5.284
   38        1.576   3.646   0.000   5.221
   39        1.570   3.735   0.000   5.304
   40        1.570   3.720   0.000   5.290
   41        1.571   3.727   0.000   5.298
   42        1.574   3.704   0.000   5.277
   43        1.573   3.720   0.000   5.293
   44        1.574   3.635   0.000   5.209
   45        1.577   3.701   0.000   5.278
   46        1.574   3.705   0.000   5.278
   47        1.570   3.721   0.000   5.291
   48        1.572   3.715   0.000   5.287
   49        1.575   3.696   0.000   5.270
   50        1.570   3.720   0.000   5.290
   51        1.575   3.711   0.000   5.286
   52        1.578   3.690   0.000   5.267
   53        1.575   3.699   0.000   5.274
   54        1.576   3.676   0.000   5.252
   55        1.574   3.707   0.000   5.281
   56        1.574   3.700   0.000   5.274
   57        1.579   3.657   0.000   5.236
   58        1.574   3.693   0.000   5.267
   59        1.576   3.685   0.000   5.261
   60        1.574   3.706   0.000   5.280
   61        1.578   3.659   0.000   5.237
   62        1.568   3.726   0.000   5.294
   63        1.572   3.705   0.000   5.277
   64        1.576   3.688   0.000   5.264
   65        1.571   3.708   0.000   5.279
   66        1.577   3.656   0.000   5.233
   67        1.573   3.693   0.000   5.266
   68        1.576   3.701   0.000   5.277
   69        1.570   3.718   0.000   5.288
   70        1.570   3.724   0.000   5.294
   71        1.576   3.685   0.000   5.260
   72        1.576   3.654   0.000   5.230
   73        1.612   3.568   0.000   5.180
   74        0.639   0.990   0.000   1.629
   75        0.644   0.994   0.000   1.638
   76        0.646   1.001   0.000   1.647
   77        0.637   0.982   0.000   1.619
   78        0.641   0.993   0.000   1.634
   79        0.646   0.991   0.000   1.637
   80        0.639   0.989   0.000   1.628
   81        0.645   0.996   0.000   1.640
   82        0.638   0.985   0.000   1.623
   83        0.640   0.991   0.000   1.630
   84        0.641   0.994   0.000   1.635
   85        0.642   1.001   0.000   1.644
   86        0.645   0.993   0.000   1.638
   87        0.638   0.986   0.000   1.624
   88        0.641   0.990   0.000   1.631
   89        0.639   0.988   0.000   1.628
   90        0.643   0.992   0.000   1.635
   91        0.641   0.994   0.000   1.635
   92        0.646   0.996   0.000   1.642
   93        0.641   0.995   0.000   1.636
   94        0.640   0.990   0.000   1.629
   95        0.645   0.989   0.000   1.633
   96        0.643   0.989   0.000   1.631
   97        0.639   0.981   0.000   1.620
   98        0.641   0.998   0.000   1.639
   99        0.646   0.992   0.000   1.638
  100        0.644   0.990   0.000   1.634
  101        0.646   0.995   0.000   1.641
  102        0.642   0.991   0.000   1.634
  103        0.641   0.994   0.000   1.635
  104        0.643   0.993   0.000   1.635
  105        0.640   0.988   0.000   1.628
  106        0.638   0.986   0.000   1.624
  107        0.341   0.452   0.000   0.794
  108        0.341   0.453   0.000   0.794
  109        0.340   0.453   0.000   0.793
  110        0.112   0.064   9.211   9.387
  111        0.123   0.079   9.212   9.414
  112        0.132   0.080   9.189   9.401
  113        1.368   2.389   0.000   3.757
  114        0.920   1.677   0.000   2.597
--------------------------------------------------
tot        139.817 307.913  27.611 475.342
 


 magnetization (x)
 
# of ion       s       p       d       tot
------------------------------------------
    1       -0.000   0.000   0.000  -0.000
    2        0.000  -0.000   0.000  -0.000
    3        0.000   0.000   0.000   0.000
    4       -0.000   0.000   0.000  -0.000
    5       -0.000  -0.000   0.000  -0.000
    6       -0.000  -0.000   0.000  -0.000
    7        0.000  -0.000   0.000  -0.000
    8       -0.000  -0.000   0.000  -0.000
    9        0.000  -0.000   0.000  -0.000
   10       -0.000  -0.000   0.000  -0.000
   11        0.000  -0.000   0.000  -0.000
   12        0.000  -0.000   0.000  -0.000
   13       -0.000  -0.000   0.000  -0.000
   14        0.000  -0.000   0.000  -0.000
   15       -0.000  -0.000   0.000  -0.000
   16        0.000  -0.000   0.000  -0.000
   17        0.000  -0.000   0.000  -0.000
   18        0.000  -0.000   0.000  -0.000
   19       -0.000  -0.000   0.000  -0.000
   20        0.000   0.000   0.000   0.000
   21        0.000   0.000   0.000   0.000
   22       -0.000  -0.000   0.000  -0.000
   23       -0.000  -0.000   0.000  -0.000
   24        0.000   0.000   0.000   0.000
   25        0.000  -0.000   0.000  -0.000
   26        0.000  -0.000   0.000  -0.000
   27        0.000  -0.000   0.000  -0.000
   28       -0.000  -0.000   0.000  -0.000
   29        0.000  -0.000   0.000   0.000
   30        0.000   0.000   0.000   0.000
   31        0.000   0.000   0.000   0.000
   32        0.000   0.000   0.000   0.000
   33        0.000  -0.000   0.000  -0.000
   34        0.000  -0.000   0.000   0.000
   35       -0.000   0.000   0.000   0.000
   36       -0.000  -0.000   0.000  -0.000
   37        0.000   0.000   0.000   0.000
   38        0.000   0.000   0.000   0.000
   39        0.000   0.000   0.000   0.000
   40       -0.000  -0.000   0.000  -0.000
   41        0.000   0.000   0.000   0.000
   42       -0.000  -0.000   0.000  -0.000
   43       -0.000  -0.000   0.000  -0.000
   44       -0.000  -0.000   0.000  -0.000
   45        0.000  -0.000   0.000  -0.000
   46       -0.000  -0.000   0.000  -0.000
   47        0.000   0.000   0.000   0.000
   48       -0.000  -0.000   0.000  -0.000
   49        0.000  -0.000   0.000  -0.000
   50       -0.000  -0.000   0.000  -0.000
   51        0.000  -0.000   0.000  -0.000
   52       -0.000   0.000   0.000   0.000
   53        0.000  -0.000   0.000  -0.000
   54        0.000  -0.000   0.000  -0.000
   55        0.000  -0.000   0.000  -0.000
   56       -0.000  -0.000   0.000  -0.000
   57        0.000   0.000   0.000   0.000
   58       -0.000  -0.000   0.000  -0.000
   59       -0.000  -0.000   0.000  -0.000
   60        0.000   0.000   0.000   0.000
   61        0.000  -0.000   0.000  -0.000
   62        0.000  -0.000   0.000  -0.000
   63       -0.000  -0.000   0.000  -0.000
   64       -0.000  -0.000   0.000  -0.000
   65       -0.000  -0.000   0.000  -0.000
   66        0.000  -0.000   0.000   0.000
   67        0.000   0.000   0.000   0.000
   68       -0.000  -0.000   0.000  -0.000
   69        0.000  -0.000   0.000  -0.000
   70        0.000  -0.000   0.000  -0.000
   71        0.000  -0.000   0.000  -0.000
   72        0.000   0.000   0.000   0.000
   73        0.000  -0.000   0.000  -0.000
   74       -0.000  -0.000   0.000  -0.000
   75       -0.000   0.000   0.000   0.000
   76       -0.000  -0.000   0.000  -0.000
   77       -0.000   0.000   0.000  -0.000
   78       -0.000   0.000   0.000   0.000
   79       -0.000   0.000   0.000   0.000
   80        0.000   0.000   0.000   0.000
   81       -0.000  -0.000   0.000  -0.000
   82        0.000   0.000   0.000   0.000
   83        0.000  -0.000   0.000   0.000
   84       -0.000   0.000   0.000  -0.000
   85        0.000   0.000   0.000   0.000
   86       -0.000   0.000   0.000  -0.000
   87        0.000   0.000   0.000   0.000
   88       -0.000  -0.000   0.000  -0.000
   89        0.000   0.000   0.000   0.000
   90        0.000   0.000   0.000   0.000
   91        0.000   0.000   0.000   0.000
   92       -0.000  -0.000   0.000  -0.000
   93       -0.000  -0.000   0.000  -0.000
   94       -0.000  -0.000   0.000  -0.000
   95       -0.000  -0.000   0.000  -0.000
   96       -0.000  -0.000   0.000  -0.000
   97        0.000  -0.000   0.000   0.000
   98        0.000   0.000   0.000   0.000
   99       -0.000  -0.000   0.000  -0.000
  100        0.000   0.000   0.000   0.000
  101       -0.000   0.000   0.000   0.000
  102       -0.000  -0.000   0.000  -0.000
  103        0.000   0.000   0.000   0.000
  104       -0.000   0.000   0.000  -0.000
  105        0.000   0.000   0.000   0.000
  106       -0.000  -0.000   0.000  -0.000
  107        0.000   0.000   0.000   0.000
  108        0.000  -0.000   0.000  -0.000
  109       -0.000  -0.000   0.000  -0.000
  110       -0.000   0.000  -0.000  -0.000
  111       -0.000  -0.000  -0.000  -0.000
  112       -0.000   0.000   0.000  -0.000
  113       -0.000  -0.000   0.000  -0.000
  114        0.000   0.000   0.000   0.000
--------------------------------------------------
tot          0.000  -0.000  -0.000  -0.000
 

 total amount of memory used by VASP MPI-rank0   214856. kBytes
=======================================================================

   base      :      30000. kBytes
   nonlr-proj:      18786. kBytes
   fftplans  :      63994. kBytes
   grid      :      62827. kBytes
   one-center:        902. kBytes
   wavefun   :      38347. kBytes
 
  
  
 General timing and accounting informations for this job:
 ========================================================
  
                  Total CPU time used (sec):     2286.953
                            User time (sec):     2213.676
                          System time (sec):       73.278
                         Elapsed time (sec):     2295.821
  
                   Maximum memory used (kb):      331480.
                   Average memory used (kb):           0.
  
                          Minor page faults:      5200240
                          Major page faults:            3
                 Voluntary context switches:         1939
