>>>  VASP 5.4.4 with BEEF-vdw and vtst
--------------------------------------------------------
>>>  Job information
     SLURM_JOBID=8599721
     SLURM_JOB_NODELIST=cpn-u22-17
     SLURM_NNODES=1
     SLURMTMPDIR=/scratch/8599721
     working directory = /projects/academic/ericwalk/ruthbell/Ads_Ag-SSZ13/O2_gas/vtst
--------------------------------------------------------
>>>  Module information
--------------------------------------------------------
>>>  Running Configuration
NPROCS=16
--------------------------------------------------------
>>>  Job started at Tue Jun  7 13:58:55 EDT 2022
--------------------------------------------------------
 running on   16 total cores
 distrk:  each k-point on   16 cores,    1 groups
 distr:  one band on    4 cores,    4 groups
 using from now: INCAR     
 vasp.5.4.4.18Apr17-6-g9f103f2a35 (build Dec 31 2018 11:41:54) complex          
  
 POSCAR found type information on POSCAR  O 
 POSCAR found :  1 types and       2 ions
 scaLAPACK will be used

 ----------------------------------------------------------------------------- 
|                                                                             |
|  ADVICE TO THIS USER RUNNING 'VASP/VAMP'   (HEAR YOUR MASTER'S VOICE ...):  |
|                                                                             |
|      You have a (more or less) 'small supercell' and for smaller cells      |
|      it is recommended  to use the reciprocal-space projection scheme!      |
|      The real space optimization is not  efficient for small cells and it   |
|      is also less accurate ...                                              |
|      Therefore set LREAL=.FALSE. in the  INCAR file                         |
|                                                                             |
 ----------------------------------------------------------------------------- 

 LDA part: xc-table for Pade appr. of Perdew
 POSCAR found type information on POSCAR  O 
 POSCAR found :  1 types and       2 ions
 generate k-points for:    2    2    1
 POSCAR, INCAR and KPOINTS ok, starting setup
 FFT: planning ...
 WAVECAR not read
 entering main loop
       N       E                     dE             d eps       ncg     rms          rms(c)
DAV:   1     0.821847724594E+02    0.82185E+02   -0.24555E+03   320   0.371E+02
DAV:   2     0.115456010312E+02   -0.70639E+02   -0.70362E+02   280   0.122E+02
DAV:   3    -0.420093074623E+01   -0.15747E+02   -0.82670E+01   268   0.428E+01
DAV:   4    -0.946614761212E+01   -0.52652E+01   -0.43807E+01   292   0.150E+01
DAV:   5    -0.979960957175E+01   -0.33346E+00   -0.33342E+00   232   0.394E+00    0.630E+00
DAV:   6    -0.956549504531E+01    0.23411E+00   -0.11786E+00   196   0.908E+00    0.292E+00
DAV:   7    -0.984489117771E+01   -0.27940E+00   -0.19229E-01   192   0.397E+00    0.140E+00
DAV:   8    -0.984347243181E+01    0.14187E-02   -0.72446E-02   212   0.211E+00    0.402E-01
DAV:   9    -0.985239588680E+01   -0.89235E-02   -0.57670E-03   212   0.651E-01    0.181E-01
DAV:  10    -0.985353219732E+01   -0.11363E-02   -0.74240E-04   216   0.244E-01    0.405E-02
DAV:  11    -0.985379811059E+01   -0.26591E-03   -0.64085E-05   196   0.679E-02    0.141E-02
DAV:  12    -0.985397316034E+01   -0.17505E-03   -0.16395E-05   212   0.339E-02    0.691E-03
DAV:  13    -0.985409029026E+01   -0.11713E-03   -0.59539E-06   196   0.195E-02    0.431E-03
DAV:  14    -0.985417495634E+01   -0.84666E-04   -0.54041E-06   192   0.166E-02    0.280E-03
DAV:  15    -0.985423779121E+01   -0.62835E-04   -0.63021E-06   192   0.140E-02    0.174E-03
DAV:  16    -0.985430771238E+01   -0.69921E-04   -0.34347E-06   212   0.939E-03    0.120E-03
DAV:  17    -0.985435440931E+01   -0.46697E-04   -0.17453E-06   216   0.700E-03    0.646E-04
DAV:  18    -0.985437868249E+01   -0.24273E-04   -0.68469E-07   224   0.385E-03    0.481E-04
DAV:  19    -0.985440794847E+01   -0.29266E-04   -0.11668E-06   208   0.473E-03    0.285E-04
DAV:  20    -0.985441710511E+01   -0.91566E-05   -0.27074E-07   220   0.257E-03    0.203E-04
DAV:  21    -0.985442081096E+01   -0.37059E-05   -0.58764E-08   204   0.165E-03    0.175E-04
DAV:  22    -0.985442305137E+01   -0.22404E-05   -0.34723E-08   196   0.126E-03    0.154E-04
DAV:  23    -0.985442379680E+01   -0.74543E-06   -0.49803E-09   220   0.492E-04    0.151E-04
DAV:  24    -0.985442461865E+01   -0.82185E-06   -0.28421E-09   192   0.422E-04    0.147E-04
DAV:  25    -0.985442504766E+01   -0.42901E-06   -0.11579E-09   216   0.287E-04    0.146E-04
DAV:  26    -0.985442517656E+01   -0.12891E-06   -0.29129E-10   216   0.131E-04    0.146E-04
DAV:  27    -0.985442527805E+01   -0.10149E-06   -0.25960E-10   192   0.129E-04    0.146E-04
DAV:  28    -0.985442529456E+01   -0.16509E-07   -0.51554E-11   212   0.473E-05    0.146E-04
DAV:  29    -0.985442529741E+01   -0.28429E-08   -0.18969E-11   224   0.194E-05
   1 F= -.98544253E+01 E0= -.98544253E+01  d E =-.985443E+01  mag=     2.0000
quench:  g(F)=  0.000E+00 g(S)=  0.000E+00 dE (1.order)= 0.000E+00
 bond charge predicted
       N       E                     dE             d eps       ncg     rms          rms(c)
DAV:   1    -0.985441006644E+01    0.15228E-04   -0.57205E-03   196   0.622E-01    0.461E-02
DAV:   2    -0.985436398315E+01    0.46083E-04   -0.18782E-04   228   0.121E-01    0.285E-02
DAV:   3    -0.985444340091E+01   -0.79418E-04   -0.14543E-04   252   0.988E-02    0.145E-02
DAV:   4    -0.985459016168E+01   -0.14676E-03   -0.86881E-05   224   0.777E-02    0.310E-03
DAV:   5    -0.985460682573E+01   -0.16664E-04   -0.85369E-06   228   0.246E-02    0.196E-03
DAV:   6    -0.985462556794E+01   -0.18742E-04   -0.18394E-06   200   0.953E-03    0.123E-03
DAV:   7    -0.985464008106E+01   -0.14513E-04   -0.74008E-07   224   0.606E-03    0.717E-04
DAV:   8    -0.985465420362E+01   -0.14123E-04   -0.58915E-07   212   0.523E-03    0.448E-04
DAV:   9    -0.985466257046E+01   -0.83668E-05   -0.28040E-07   220   0.309E-03    0.333E-04
DAV:  10    -0.985467156014E+01   -0.89897E-05   -0.33724E-07   236   0.270E-03    0.252E-04
DAV:  11    -0.985467617156E+01   -0.46114E-05   -0.12520E-07   240   0.165E-03    0.192E-04
DAV:  12    -0.985467855267E+01   -0.23811E-05   -0.31513E-08   232   0.114E-03    0.164E-04
DAV:  13    -0.985468025728E+01   -0.17046E-05   -0.18292E-08   232   0.897E-04    0.154E-04
DAV:  14    -0.985468110124E+01   -0.84396E-06   -0.48847E-09   228   0.493E-04    0.148E-04
DAV:  15    -0.985468146172E+01   -0.36048E-06   -0.10902E-09   220   0.261E-04    0.147E-04
DAV:  16    -0.985468171808E+01   -0.25635E-06   -0.60271E-10   200   0.199E-04    0.146E-04
DAV:  17    -0.985468188225E+01   -0.16417E-06   -0.33841E-10   208   0.173E-04    0.146E-04
DAV:  18    -0.985468193209E+01   -0.49837E-07   -0.69613E-11   232   0.765E-05    0.146E-04
DAV:  19    -0.985468195417E+01   -0.22084E-07   -0.47766E-11   232   0.566E-05    0.146E-04
DAV:  20    -0.985468195879E+01   -0.46166E-08   -0.31095E-11   236   0.269E-05
   2 F= -.98546820E+01 E0= -.98546820E+01  d E =-.256661E-03  mag=     2.0000
quench:  g(F)=  0.000E+00 g(S)=  0.000E+00 dE (1.order)= 0.000E+00
 bond charge predicted
       N       E                     dE             d eps       ncg     rms          rms(c)
DAV:   1    -0.985465972340E+01    0.22231E-04   -0.11459E-02   200   0.879E-01    0.653E-02
DAV:   2    -0.985442934893E+01    0.23037E-03   -0.37604E-04   236   0.171E-01    0.403E-02
DAV:   3    -0.985440068277E+01    0.28666E-04   -0.29373E-04   256   0.140E-01    0.204E-02
DAV:   4    -0.985456012364E+01   -0.15944E-03   -0.17148E-04   228   0.109E-01    0.443E-03
DAV:   5    -0.985458004278E+01   -0.19919E-04   -0.16599E-05   244   0.340E-02    0.279E-03
DAV:   6    -0.985460038135E+01   -0.20339E-04   -0.36293E-06   208   0.132E-02    0.176E-03
DAV:   7    -0.985462123474E+01   -0.20853E-04   -0.14890E-06   224   0.826E-03    0.103E-03
DAV:   8    -0.985464654103E+01   -0.25306E-04   -0.13821E-06   216   0.740E-03    0.624E-04
DAV:   9    -0.985465884631E+01   -0.12305E-04   -0.46938E-07   212   0.404E-03    0.450E-04
DAV:  10    -0.985467143735E+01   -0.12591E-04   -0.48735E-07   228   0.337E-03    0.328E-04
DAV:  11    -0.985467965576E+01   -0.82184E-05   -0.26483E-07   240   0.242E-03    0.231E-04
DAV:  12    -0.985468329842E+01   -0.36427E-05   -0.53269E-08   240   0.153E-03    0.181E-04
DAV:  13    -0.985468577436E+01   -0.24759E-05   -0.31541E-08   228   0.120E-03    0.162E-04
DAV:  14    -0.985468699587E+01   -0.12215E-05   -0.95760E-09   232   0.670E-04    0.151E-04
DAV:  15    -0.985468749532E+01   -0.49945E-06   -0.19800E-09   228   0.338E-04    0.147E-04
DAV:  16    -0.985468789870E+01   -0.40338E-06   -0.12064E-09   200   0.268E-04    0.147E-04
DAV:  17    -0.985468814342E+01   -0.24473E-06   -0.67522E-10   212   0.218E-04    0.146E-04
DAV:  18    -0.985468825581E+01   -0.11238E-06   -0.17370E-10   216   0.119E-04    0.146E-04
DAV:  19    -0.985468830702E+01   -0.51219E-07   -0.10522E-10   224   0.831E-05    0.146E-04
DAV:  20    -0.985468831654E+01   -0.95179E-08   -0.45273E-11   236   0.387E-05
   3 F= -.98546883E+01 E0= -.98546883E+01  d E =-.635775E-05  mag=     2.0000
quench:  g(F)=  0.000E+00 g(S)=  0.000E+00 dE (1.order)= 0.000E+00
 bond charge predicted
       N       E                     dE             d eps       ncg     rms          rms(c)
DAV:   1    -0.985463537057E+01    0.52936E-04   -0.10950E-02   256   0.878E-01    0.628E-02
DAV:   2    -0.985441317692E+01    0.22219E-03   -0.37329E-04   232   0.164E-01    0.379E-02
DAV:   3    -0.985439306325E+01    0.20114E-04   -0.25061E-04   240   0.127E-01    0.210E-02
DAV:   4    -0.985447241805E+01   -0.79355E-04   -0.21030E-04   248   0.117E-01    0.497E-03
DAV:   5    -0.985449767513E+01   -0.25257E-04   -0.28897E-05   232   0.465E-02    0.283E-03
DAV:   6    -0.985452307044E+01   -0.25395E-04   -0.60910E-06   212   0.173E-02    0.159E-03
DAV:   7    -0.985454753566E+01   -0.24465E-04   -0.35111E-06   220   0.130E-02    0.103E-03
DAV:   8    -0.985457431002E+01   -0.26774E-04   -0.22003E-06   200   0.107E-02    0.617E-04
DAV:   9    -0.985458791796E+01   -0.13608E-04   -0.64630E-07   224   0.596E-03    0.464E-04
DAV:  10    -0.985460234546E+01   -0.14427E-04   -0.64934E-07   228   0.460E-03    0.287E-04
DAV:  11    -0.985460913262E+01   -0.67872E-05   -0.28254E-07   248   0.270E-03    0.219E-04
DAV:  12    -0.985461191157E+01   -0.27789E-05   -0.47313E-08   248   0.166E-03    0.177E-04
DAV:  13    -0.985461473638E+01   -0.28248E-05   -0.59567E-08   240   0.173E-03    0.155E-04
DAV:  14    -0.985461540835E+01   -0.67197E-06   -0.68971E-09   240   0.541E-04    0.149E-04
DAV:  15    -0.985461594502E+01   -0.53667E-06   -0.33511E-09   224   0.452E-04    0.145E-04
DAV:  16    -0.985461624630E+01   -0.30128E-06   -0.85681E-10   208   0.235E-04    0.145E-04
DAV:  17    -0.985461660400E+01   -0.35770E-06   -0.77641E-10   212   0.264E-04    0.144E-04
DAV:  18    -0.985461672479E+01   -0.12080E-06   -0.25592E-10   228   0.138E-04    0.144E-04
DAV:  19    -0.985461676742E+01   -0.42627E-07   -0.92915E-11   240   0.795E-05    0.144E-04
DAV:  20    -0.985461678170E+01   -0.14284E-07   -0.45570E-11   240   0.541E-05    0.144E-04
DAV:  21    -0.985461678384E+01   -0.21322E-08   -0.25471E-11   264   0.201E-05
   4 F= -.98546168E+01 E0= -.98546168E+01  d E =0.715327E-04  mag=     2.0000
quench:  g(F)=  0.000E+00 g(S)=  0.000E+00 dE (1.order)= 0.000E+00
 bond charge predicted
       N       E                     dE             d eps       ncg     rms          rms(c)
DAV:   1    -0.985463387684E+01   -0.17095E-04   -0.11617E-02   256   0.900E-01    0.668E-02
DAV:   2    -0.985444389037E+01    0.18999E-03   -0.45128E-04   228   0.178E-01    0.399E-02
DAV:   3    -0.985444781875E+01   -0.39284E-05   -0.24711E-04   240   0.129E-01    0.214E-02
DAV:   4    -0.985455211495E+01   -0.10430E-03   -0.18896E-04   224   0.115E-01    0.519E-03
DAV:   5    -0.985457937588E+01   -0.27261E-04   -0.24945E-05   232   0.435E-02    0.285E-03
DAV:   6    -0.985459630353E+01   -0.16928E-04   -0.34835E-06   232   0.137E-02    0.171E-03
DAV:   7    -0.985461850831E+01   -0.22205E-04   -0.25875E-06   208   0.111E-02    0.104E-03
DAV:   8    -0.985463971928E+01   -0.21211E-04   -0.15076E-06   212   0.843E-03    0.647E-04
DAV:   9    -0.985465408505E+01   -0.14366E-04   -0.64335E-07   220   0.527E-03    0.477E-04
DAV:  10    -0.985466677686E+01   -0.12692E-04   -0.52549E-07   216   0.396E-03    0.304E-04
DAV:  11    -0.985467543378E+01   -0.86569E-05   -0.35012E-07   236   0.275E-03    0.224E-04
DAV:  12    -0.985467883314E+01   -0.33994E-05   -0.52812E-08   252   0.152E-03    0.181E-04
DAV:  13    -0.985468148022E+01   -0.26471E-05   -0.45181E-08   248   0.140E-03    0.157E-04
DAV:  14    -0.985468235562E+01   -0.87540E-06   -0.81971E-09   248   0.592E-04    0.151E-04
DAV:  15    -0.985468292959E+01   -0.57396E-06   -0.29521E-09   224   0.405E-04    0.147E-04
DAV:  16    -0.985468325763E+01   -0.32805E-06   -0.94786E-10   204   0.238E-04    0.147E-04
DAV:  17    -0.985468358999E+01   -0.33235E-06   -0.66269E-10   204   0.228E-04    0.146E-04
DAV:  18    -0.985468373858E+01   -0.14859E-06   -0.23357E-10   212   0.138E-04    0.146E-04
DAV:  19    -0.985468378736E+01   -0.48789E-07   -0.91069E-11   240   0.730E-05    0.146E-04
DAV:  20    -0.985468380798E+01   -0.20621E-07   -0.52958E-11   244   0.508E-05    0.146E-04
DAV:  21    -0.985468381200E+01   -0.40137E-08   -0.27083E-11   248   0.232E-05
   5 F= -.98546838E+01 E0= -.98546838E+01  d E =-.670282E-04  mag=     2.0000
quench:  g(F)=  0.000E+00 g(S)=  0.000E+00 dE (1.order)= 0.000E+00
 bond charge predicted
       N       E                     dE             d eps       ncg     rms          rms(c)
DAV:   1    -0.985466021966E+01    0.23588E-04   -0.11449E-02   192   0.878E-01    0.653E-02
DAV:   2    -0.985442564861E+01    0.23457E-03   -0.37595E-04   236   0.170E-01    0.403E-02
DAV:   3    -0.985440407010E+01    0.21579E-04   -0.29300E-04   256   0.140E-01    0.204E-02
DAV:   4    -0.985455871874E+01   -0.15465E-03   -0.17253E-04   228   0.109E-01    0.436E-03
DAV:   5    -0.985457964041E+01   -0.20922E-04   -0.16834E-05   220   0.341E-02    0.277E-03
DAV:   6    -0.985460147986E+01   -0.21839E-04   -0.35914E-06   200   0.131E-02    0.175E-03
DAV:   7    -0.985462229838E+01   -0.20819E-04   -0.14834E-06   224   0.827E-03    0.101E-03
DAV:   8    -0.985464605162E+01   -0.23753E-04   -0.12291E-06   212   0.702E-03    0.615E-04
DAV:   9    -0.985465916017E+01   -0.13109E-04   -0.51703E-07   216   0.421E-03    0.447E-04
DAV:  10    -0.985467203044E+01   -0.12870E-04   -0.50648E-07   232   0.348E-03    0.326E-04
DAV:  11    -0.985467980927E+01   -0.77788E-05   -0.24895E-07   244   0.238E-03    0.228E-04
DAV:  12    -0.985468340425E+01   -0.35950E-05   -0.56825E-08   236   0.165E-03    0.180E-04
DAV:  13    -0.985468589215E+01   -0.24879E-05   -0.31575E-08   232   0.119E-03    0.161E-04
DAV:  14    -0.985468709047E+01   -0.11983E-05   -0.89676E-09   232   0.652E-04    0.151E-04
DAV:  15    -0.985468761494E+01   -0.52447E-06   -0.20847E-09   220   0.351E-04    0.147E-04
DAV:  16    -0.985468800209E+01   -0.38716E-06   -0.11845E-09   212   0.261E-04    0.147E-04
DAV:  17    -0.985468825346E+01   -0.25136E-06   -0.68795E-10   212   0.227E-04    0.146E-04
DAV:  18    -0.985468834907E+01   -0.95612E-07   -0.15296E-10   228   0.110E-04    0.146E-04
DAV:  19    -0.985468839670E+01   -0.47628E-07   -0.96323E-11   224   0.823E-05    0.146E-04
DAV:  20    -0.985468840562E+01   -0.89256E-08   -0.43821E-11   240   0.367E-05
   6 F= -.98546884E+01 E0= -.98546884E+01  d E =-.459363E-05  mag=     2.0000
quench:  g(F)=  0.000E+00 g(S)=  0.000E+00 dE (1.order)= 0.000E+00
 bond charge predicted
       N       E                     dE             d eps       ncg     rms          rms(c)
DAV:   1    -0.985463565070E+01    0.52746E-04   -0.10956E-02   256   0.879E-01    0.628E-02
DAV:   2    -0.985441613806E+01    0.21951E-03   -0.37394E-04   240   0.164E-01    0.378E-02
DAV:   3    -0.985438870848E+01    0.27430E-04   -0.24942E-04   240   0.126E-01    0.209E-02
DAV:   4    -0.985447607501E+01   -0.87367E-04   -0.21000E-04   240   0.117E-01    0.496E-03
DAV:   5    -0.985449964268E+01   -0.23568E-04   -0.28781E-05   240   0.465E-02    0.283E-03
DAV:   6    -0.985452142875E+01   -0.21786E-04   -0.60794E-06   232   0.174E-02    0.159E-03
DAV:   7    -0.985454729811E+01   -0.25869E-04   -0.35032E-06   200   0.130E-02    0.102E-03
DAV:   8    -0.985457506442E+01   -0.27766E-04   -0.22439E-06   208   0.106E-02    0.625E-04
DAV:   9    -0.985458823663E+01   -0.13172E-04   -0.61655E-07   220   0.594E-03    0.467E-04
DAV:  10    -0.985460223187E+01   -0.13995E-04   -0.63653E-07   224   0.452E-03    0.289E-04
DAV:  11    -0.985460952318E+01   -0.72913E-05   -0.30038E-07   240   0.272E-03    0.222E-04
DAV:  12    -0.985461249407E+01   -0.29709E-05   -0.48008E-08   244   0.160E-03    0.180E-04
DAV:  13    -0.985461513718E+01   -0.26431E-05   -0.56002E-08   240   0.170E-03    0.159E-04
DAV:  14    -0.985461584714E+01   -0.70996E-06   -0.81682E-09   236   0.585E-04    0.151E-04
DAV:  15    -0.985461635516E+01   -0.50802E-06   -0.26659E-09   224   0.388E-04    0.148E-04
DAV:  16    -0.985461666971E+01   -0.31456E-06   -0.95381E-10   204   0.245E-04    0.148E-04
DAV:  17    -0.985461700937E+01   -0.33966E-06   -0.69601E-10   204   0.254E-04    0.147E-04
DAV:  18    -0.985461713294E+01   -0.12357E-06   -0.21269E-10   228   0.129E-04    0.147E-04
DAV:  19    -0.985461718178E+01   -0.48840E-07   -0.86522E-11   240   0.780E-05    0.147E-04
DAV:  20    -0.985461719400E+01   -0.12225E-07   -0.52769E-11   240   0.483E-05    0.147E-04
DAV:  21    -0.985461719634E+01   -0.23381E-08   -0.20284E-11   248   0.197E-05
   7 F= -.98546172E+01 E0= -.98546172E+01  d E =0.712093E-04  mag=     2.0000
quench:  g(F)=  0.000E+00 g(S)=  0.000E+00 dE (1.order)= 0.000E+00
--------------------------------------------------------
>>>  Job finished at Tue Jun  7 14:06:40 EDT 2022
