 vasp.5.4.4.18Apr17-6-g9f103f2a35 (build Dec 31 2018 11:41:54) complex          
  
 executed on             LinuxIFC date 2022.06.07  13:58:56
 running on   16 total cores
 distrk:  each k-point on   16 cores,    1 groups
 distr:  one band on NCORES_PER_BAND=   4 cores,    4 groups


--------------------------------------------------------------------------------------------------------


 INCAR:
 POTCAR:   PAW_PBE O 08Apr2002                    
 POTCAR:   PAW_PBE O 08Apr2002                    
   VRHFIN =O: s2p4                                                              
   LEXCH  = PE                                                                  
   EATOM  =   432.3788 eV,   31.7789 Ry                                         
                                                                                
   TITEL  = PAW_PBE O 08Apr2002                                                 
   LULTRA =        F    use ultrasoft PP ?                                      
   IUNSCR =        0    unscreen: 0-lin 1-nonlin 2-no                           
   RPACOR =     .000    partial core radius                                     
   POMASS =   16.000; ZVAL   =    6.000    mass and valenz                      
   RCORE  =    1.520    outmost cutoff radius                                   
   RWIGS  =    1.550; RWIGS  =     .820    wigner-seitz radius (au A)           
   ENMAX  =  400.000; ENMIN  =  300.000 eV                                      
   ICORE  =        2    local potential                                         
   LCOR   =        T    correct aug charges                                     
   LPAW   =        T    paw PP                                                  
   EAUG   =  605.392                                                            
   DEXC   =     .000                                                            
   RMAX   =    2.264    core radius for proj-oper                               
   RAUG   =    1.300    factor for augmentation sphere                          
   RDEP   =    1.550    radius for radial grids                                 
   QCUT   =   -5.520; QGAM   =   11.041    optimization parameters              
                                                                                
   Description                                                                  
     l     E      TYP  RCUT    TYP  RCUT                                        
     0   .000     23  1.200                                                     
     0  -.700     23  1.200                                                     
     1   .000     23  1.520                                                     
     1   .600     23  1.520                                                     
     2   .000      7  1.500                                                     
  local pseudopotential read in
  atomic valenz-charges read in
  non local Contribution for L=           0  read in
    real space projection operators read in
  non local Contribution for L=           0  read in
    real space projection operators read in
  non local Contribution for L=           1  read in
    real space projection operators read in
  non local Contribution for L=           1  read in
    real space projection operators read in
    PAW grid and wavefunctions read in
 
   number of l-projection  operators is LMAX  =           4
   number of lm-projection operators is LMMAX =           8
 

 ----------------------------------------------------------------------------- 
|                                                                             |
|  ADVICE TO THIS USER RUNNING 'VASP/VAMP'   (HEAR YOUR MASTER'S VOICE ...):  |
|                                                                             |
|      You have a (more or less) 'small supercell' and for smaller cells      |
|      it is recommended  to use the reciprocal-space projection scheme!      |
|      The real space optimization is not  efficient for small cells and it   |
|      is also less accurate ...                                              |
|      Therefore set LREAL=.FALSE. in the  INCAR file                         |
|                                                                             |
 ----------------------------------------------------------------------------- 

 Optimization of the real space projectors (new method)

 maximal supplied QI-value         = 24.76
 optimisation between [QCUT,QGAM] = [ 10.15, 20.30] = [ 28.85,115.39] Ry 
 Optimized for a Real-space Cutoff    1.51 Angstroem

   l    n(q)    QCUT    max X(q) W(low)/X(q) W(high)/X(q)  e(spline) 
   0      9    10.150     4.192    0.32E-04    0.13E-04    0.13E-06
   0      9    10.150     8.473    0.18E-03    0.20E-03    0.43E-06
   1      9    10.150     2.474    0.32E-04    0.33E-04    0.64E-07
   1      9    10.150     3.912    0.13E-03    0.16E-03    0.33E-06
 PAW_PBE O 08Apr2002                    :
 energy of atom  1       EATOM= -432.3788
 kinetic energy error for atom=    0.1156 (will be added to EATOM!!)
 
 
 POSCAR: O2                                      
  positions in direct lattice
  No initial velocities read in
 exchange correlation table for  LEXCH =        8
   RHO(1)=    0.500       N(1)  =     2000
   RHO(2)=  100.500       N(2)  =     4000

 VTST: version 3.2, (02/03/18)

 CHAIN: initializing optimizer
 
 OPT: Using VASP Quick-Min optimizer
 CHAIN: Read ICHAIN            1
 
 POSCAR: O2                                      
  positions in direct lattice
  No initial velocities read in
 CHAIN: Running the Dynamical Matrix
 


--------------------------------------------------------------------------------------------------------


 ion  position               nearest neighbor table
   1  0.815  0.514  0.681-   2 1.23
   2  0.795  0.523  0.601-   1 1.23
 
  LATTYP: Found a hexagonal cell.
 ALAT       =    13.6750001907
 C/A-ratio  =     1.0798537472
  
  Lattice vectors:
  
 A1 = (  13.6750001907,   0.0000000000,   0.0000000000)
 A2 = (  -6.8375000954,  11.8428975619,   0.0000000000)
 A3 = (   0.0000000000,   0.0000000000,  14.7670001984)


Analysis of symmetry for initial positions (statically):
=====================================================================
 Subroutine PRICEL returns:
 Original cell was already a primitive cell.
 

 Routine SETGRP: Setting up the symmetry group for a 
 hexagonal supercell.


 Subroutine GETGRP returns: Found  2 space group operations
 (whereof  1 operations were pure point group operations)
 out of a pool of 24 trial point group operations.


The static configuration has the point symmetry C_1 .
 The point group associated with its full space group is S_2 .


Analysis of symmetry for dynamics (positions and initial velocities):
=====================================================================
 Subroutine PRICEL returns:
 Original cell was already a primitive cell.
 

 Routine SETGRP: Setting up the symmetry group for a 
 hexagonal supercell.


 Subroutine GETGRP returns: Found  2 space group operations
 (whereof  1 operations were pure point group operations)
 out of a pool of 24 trial point group operations.


The dynamic configuration has the point symmetry C_1 .
 The point group associated with its full space group is S_2 .


Analysis of structural, dynamic, and magnetic symmetry:
=====================================================================
 Subroutine PRICEL returns:
 Original cell was already a primitive cell.
 

 Routine SETGRP: Setting up the symmetry group for a 
 hexagonal supercell.


 Subroutine GETGRP returns: Found  2 space group operations
 (whereof  1 operations were pure point group operations)
 out of a pool of 24 trial point group operations.


The magnetic configuration has the point symmetry C_1 .
 The point group associated with its full space group is S_2 .


 Subroutine INISYM returns: Found  2 space group operations
 (whereof  1 operations are pure point group operations),
 and found     1 'primitive' translations

 
 

Automatic generation of k-mesh.
 generate k-points for:    2    2    1
Space group operators:
 irot       det(A)        alpha          n_x          n_y          n_z        tau_x        tau_y        tau_z
    1     1.000000     0.000000     1.000000     0.000000     0.000000     0.000000     0.000000     0.000000
    2    -1.000000     0.000000     1.000000     0.000000     0.000000     0.610207     0.037409     0.282821
 
 Subroutine IBZKPT returns following result:
 ===========================================
 
 Found      4 irreducible k-points:
 
 Following reciprocal coordinates:
            Coordinates               Weight
  0.000000  0.000000  0.000000      1.000000
  0.500000  0.000000  0.000000      1.000000
  0.000000  0.500000  0.000000      1.000000
  0.500000  0.500000  0.000000      1.000000
 
 Following cartesian coordinates:
            Coordinates               Weight
  0.000000  0.000000  0.000000      1.000000
  0.036563  0.021110  0.000000      1.000000
  0.000000  0.042219  0.000000      1.000000
  0.036563  0.063329  0.000000      1.000000
 


--------------------------------------------------------------------------------------------------------




 Dimension of arrays:
   k-points           NKPTS =      4   k-points in BZ     NKDIM =      4   number of bands    NBANDS=     12
   number of dos      NEDOS =    301   number of ions     NIONS =      2
   non local maximal  LDIM  =      4   non local SUM 2l+1 LMDIM =      8
   total plane-waves  NPLWV = 777600
   max r-space proj   IRMAX =   4725   max aug-charges    IRDMAX=  33943
   dimension x,y,z NGX =    90 NGY =   90 NGZ =   96
   dimension x,y,z NGXF=   180 NGYF=  180 NGZF=  192
   support grid    NGXF=   360 NGYF=  360 NGZF=  384
   ions per type =               2
   NGX,Y,Z   is equivalent  to a cutoff of  10.94, 10.94, 10.81 a.u.
   NGXF,Y,Z  is equivalent  to a cutoff of  21.88, 21.88, 21.62 a.u.

 SYSTEM =  zeolite                                 
 POSCAR =  O2                                      

 Startparameter for this run:
   NWRITE =      2    write-flag & timer
   PREC   = acc       normal or accurate (medium, high low for compatibility)
   ISTART =      0    job   : 0-new  1-cont  2-samecut
   ICHARG =      2    charge: 1-file 2-atom 10-const
   ISPIN  =      2    spin polarized calculation?
   LNONCOLLINEAR =      F non collinear calculations
   LSORBIT =      F    spin-orbit coupling
   INIWAV =      1    electr: 0-lowe 1-rand  2-diag
   LASPH  =      F    aspherical Exc in radial PAW
   METAGGA=      F    non-selfconsistent MetaGGA calc.

 Electronic Relaxation 1
   ENCUT  =  400.0 eV  29.40 Ry    5.42 a.u.  22.30 22.30 24.08*2*pi/ulx,y,z
   ENINI  =  400.0     initial cutoff
   ENAUG  =  605.4 eV  augmentation charge cutoff
   NELM   =    100;   NELMIN=  2; NELMDL= -5     # of ELM steps 
   EDIFF  = 0.1E-07   stopping-criterion for ELM
   LREAL  =      T    real-space projection
   NLSPLINE    = F    spline interpolate recip. space projectors
   LCOMPAT=      F    compatible to vasp.4.4
   GGA_COMPAT  = T    GGA compatible to vasp.4.4-vasp.4.6
   LMAXPAW     = -100 max onsite density
   LMAXMIX     =    2 max onsite mixed and CHGCAR
   VOSKOWN=      0    Vosko Wilk Nusair interpolation
   ROPT   =   -0.00025
 Ionic relaxation
   EDIFFG = -.1E-07   stopping-criterion for IOM
   NSW    =      7    number of steps for IOM
   NBLOCK =      1;   KBLOCK =      7    inner block; outer block 
   IBRION =      3    ionic relax: 0-MD 1-quasi-New 2-CG
   NFREE  =      0    steps in history (QN), initial steepest desc. (CG)
   ISIF   =      2    stress and relaxation
   IWAVPR =     11    prediction:  0-non 1-charg 2-wave 3-comb
   ISYM   =      2    0-nonsym 1-usesym 2-fastsym
   LCORR  =      T    Harris-Foulkes like correction to forces

   POTIM  = 0.0000    time-step for ionic-motion
   TEIN   =    0.0    initial temperature
   TEBEG  =    0.0;   TEEND  =   0.0 temperature during run
   SMASS  =  -3.00    Nose mass-parameter (am)
   estimated Nose-frequenzy (Omega)   =  0.10E-29 period in steps =  0.00 mass=  -0.427E-26a.u.
   SCALEE = 1.0000    scale energy and forces
   NPACO  =    256;   APACO  = 16.0  distance and # of slots for P.C.
   PSTRESS=    0.0 pullay stress

  Mass of Ions in am
   POMASS =  16.00
  Ionic Valenz
   ZVAL   =   6.00
  Atomic Wigner-Seitz radii
   RWIGS  =  -1.00
  virtual crystal weights 
   VCA    =   1.00
   NELECT =      12.0000    total number of electrons
   NUPDOWN=      -1.0000    fix difference up-down

 DOS related values:
   EMIN   =  10.00;   EMAX   =-10.00  energy-range for DOS
   EFERMI =   0.00
   ISMEAR =     0;   SIGMA  =   0.05  broadening in eV -4-tet -1-fermi 0-gaus

 Electronic relaxation 2 (details)
   IALGO  =     38    algorithm
   LDIAG  =      T    sub-space diagonalisation (order eigenvalues)
   LSUBROT=      F    optimize rotation matrix (better conditioning)
   TURBO    =      0    0=normal 1=particle mesh
   IRESTART =      0    0=no restart 2=restart with 2 vectors
   NREBOOT  =      0    no. of reboots
   NMIN     =      0    reboot dimension
   EREF     =   0.00    reference energy to select bands
   IMIX   =      4    mixing-type and parameters
     AMIX     =   0.40;   BMIX     =  1.00
     AMIX_MAG =   1.60;   BMIX_MAG =  1.00
     AMIN     =   0.10
     WC   =   100.;   INIMIX=   1;  MIXPRE=   1;  MAXMIX= -45

 Intra band minimization:
   WEIMIN = 0.0010     energy-eigenvalue tresh-hold
   EBREAK =  0.21E-10  absolut break condition
   DEPER  =   0.30     relativ break condition  

   TIME   =   0.40     timestep for ELM

  volume/ion in A,a.u.               =    1195.77      8069.45
  Fermi-wavevector in a.u.,A,eV,Ry     =   0.280270  0.529633  1.068752  0.078551
  Thomas-Fermi vector in A             =   1.128865
 
 Write flags
   LWAVE        =      F    write WAVECAR
   LDOWNSAMPLE  =      F    k-point downsampling of WAVECAR
   LCHARG       =      F    write CHGCAR
   LVTOT        =      F    write LOCPOT, total local potential
   LVHAR        =      F    write LOCPOT, Hartree potential only
   LELF         =      F    write electronic localiz. function (ELF)
   LORBIT       =     11    0 simple, 1 ext, 2 COOP (PROOUT), +10 PAW based schemes


 Dipole corrections
   LMONO  =      F    monopole corrections only (constant potential shift)
   LDIPOL =      F    correct potential (dipole corrections)
   IDIPOL =      0    1-x, 2-y, 3-z, 4-all directions 
   EPSILON=  1.0000000 bulk dielectric constant

 Exchange correlation treatment:
   GGA     =    --    GGA type
   LEXCH   =     8    internal setting for exchange type
   VOSKOWN=      0    Vosko Wilk Nusair interpolation
   LHFCALC =     F    Hartree Fock is set to
   LHFONE  =     F    Hartree Fock one center treatment
   AEXX    =    0.0000 exact exchange contribution

 Linear response parameters
   LEPSILON=     F    determine dielectric tensor
   LRPA    =     F    only Hartree local field effects (RPA)
   LNABLA  =     F    use nabla operator in PAW spheres
   LVEL    =     F    velocity operator in full k-point grid
   LINTERFAST=   F  fast interpolation
   KINTER  =     0    interpolate to denser k-point grid
   CSHIFT  =0.1000    complex shift for real part using Kramers Kronig
   OMEGAMAX=  -1.0    maximum frequency
   DEG_THRESHOLD= 0.2000000E-02 threshold for treating states as degnerate
   RTIME   =   -0.100 relaxation time in fs
  (WPLASMAI=    0.000 imaginary part of plasma frequency in eV, 0.658/RTIME)
   DFIELD  = 0.0000000 0.0000000 0.0000000 field for delta impulse in time
 
 Orbital magnetization related:
   ORBITALMAG=     F  switch on orbital magnetization
   LCHIMAG   =     F  perturbation theory with respect to B field
   DQ        =  0.001000  dq finite difference perturbation B field
   LLRAUG    =     F  two centre corrections for induced B field



--------------------------------------------------------------------------------------------------------


 quickmin algorithm: (dynamic with friction)
 charge density and potential will be updated during run
 spin polarized calculation
 Variant of blocked Davidson
 Davidson routine will perform the subspace rotation
 perform sub-space diagonalisation
    after iterative eigenvector-optimisation
 modified Broyden-mixing scheme, WC =      100.0
 initial mixing is a Kerker type mixing with AMIX =  0.4000 and BMIX =      1.0000
 Hartree-type preconditioning will be used
 using additional bands            6
 real space projection scheme for non local part
 calculate Harris-corrections to forces 
   (improved forces if not selfconsistent)
 use gradient corrections 
 use of overlap-Matrix (Vanderbilt PP)
 Gauss-broadening in eV      SIGMA  =   0.05


--------------------------------------------------------------------------------------------------------


  energy-cutoff  :      400.00
  volume of cell :     2391.54
      direct lattice vectors                 reciprocal lattice vectors
    13.675000191  0.000000000  0.000000000     0.073126142  0.042219398  0.000000000
    -6.837500095 11.842897562  0.000000000     0.000000000  0.084438795  0.000000000
     0.000000000  0.000000000 14.767000198     0.000000000  0.000000000  0.067718561

  length of vectors
    13.675000191 13.675000191 14.767000198     0.084438795  0.084438795  0.067718561


 
 k-points in units of 2pi/SCALE and weight: read from INCAR                         
   0.00000000  0.00000000  0.00000000       0.250
   0.03656307  0.02110970  0.00000000       0.250
   0.00000000  0.04221940  0.00000000       0.250
   0.03656307  0.06332910  0.00000000       0.250
 
 k-points in reciprocal lattice and weights: read from INCAR                         
   0.00000000  0.00000000  0.00000000       0.250
   0.50000000  0.00000000  0.00000000       0.250
   0.00000000  0.50000000  0.00000000       0.250
   0.50000000  0.50000000  0.00000000       0.250
 
 position of ions in fractional coordinates (direct lattice) 
   0.81541687  0.51442778  0.68143421
   0.79478985  0.52298099  0.60138637
 
 position of ions in cartesian coordinates  (Angst):
   7.63342589  6.09231551 10.06273917
   7.29286881  6.19361027  8.88067262
 


--------------------------------------------------------------------------------------------------------


 k-point  1 :   0.0000 0.0000 0.0000  plane waves:   43405
 k-point  2 :   0.5000 0.0000 0.0000  plane waves:   43460
 k-point  3 :   0.0000 0.5000 0.0000  plane waves:   43460
 k-point  4 :   0.5000 0.5000 0.0000  plane waves:   43460

 maximum and minimum number of plane-waves per node :     10898    10827

 maximum number of plane-waves:     43460
 maximum index in each direction: 
   IXMAX=   22   IYMAX=   22   IZMAX=   24
   IXMIN=  -22   IYMIN=  -22   IZMIN=  -24


 real space projection operators:
  total allocation   :        567.00 KBytes
  max/ min on nodes  :        141.88        141.62


 parallel 3D FFT for wavefunctions:
    minimum data exchange during FFTs selected (reduces bandwidth)
 parallel 3D FFT for charge:
    minimum data exchange during FFTs selected (reduces bandwidth)


 total amount of memory used by VASP MPI-rank0   144579. kBytes
=======================================================================

   base      :      30000. kBytes
   nonlr-proj:        333. kBytes
   fftplans  :      63998. kBytes
   grid      :      46065. kBytes
   one-center:          6. kBytes
   wavefun   :       4177. kBytes
 
     INWAV:  cpu time    0.0000: real time    0.0002
 Broyden mixing: mesh for mixing (old mesh)
   NGX = 45   NGY = 45   NGZ = 49
  (NGX  =180   NGY  =180   NGZ  =192)
  gives a total of  99225 points

 initial charge density was supplied:
 charge density of overlapping atoms calculated
 number of electron      12.0000000 magnetization       2.0000000
 keeping initial charge density in first step


--------------------------------------------------------------------------------------------------------


 Maximum index for non-local projection operator         1143
 Maximum index for augmentation-charges         2146 (set IRDMAX)


--------------------------------------------------------------------------------------------------------


 First call to EWALD:  gamma=   0.133
 Maximum number of real-space cells 3x 3x 3
 Maximum number of reciprocal cells 3x 3x 3

    FEWALD:  cpu time    0.0013: real time    0.0013


--------------------------------------- Iteration      1(   1)  ---------------------------------------


    POTLOK:  cpu time    0.5730: real time    0.5812
    SETDIJ:  cpu time    0.2893: real time    0.2900
     EDDAV:  cpu time    1.6403: real time    1.6443
       DOS:  cpu time    0.0002: real time    0.0002
    --------------------------------------------
      LOOP:  cpu time    2.5029: real time    2.5158

 eigenvalue-minimisations  :   320
 total energy-change (2. order) : 0.8218477E+02  (-0.2455474E+03)
 number of electron      12.0000000 magnetization       2.0000000
 augmentation part       12.0000000 magnetization       2.0000000

 Free energy of the ion-electron system (eV)
  ---------------------------------------------------
  alpha Z        PSCENC =         0.23237360
  Ewald energy   TEWEN  =       200.34866435
  -Hartree energ DENC   =      -927.37453505
  -exchange      EXHF   =         0.00000000
  -V(xc)+E(xc)   XCENC  =        54.74479765
  PAW double counting   =       491.72839742     -495.41806911
  entropy T*S    EENTRO =        -0.01492372
  eigenvalues    EBANDS =      -106.58832474
  atomic energy  EATOM  =       864.52639207
  Solvation  Ediel_sol  =         0.00000000
  ---------------------------------------------------
  free energy    TOTEN  =        82.18477246 eV

  energy without entropy =       82.19969618  energy(sigma->0) =       82.19223432


--------------------------------------------------------------------------------------------------------




--------------------------------------- Iteration      1(   2)  ---------------------------------------


     EDDAV:  cpu time    1.4663: real time    1.4744
       DOS:  cpu time    0.0002: real time    0.0002
    --------------------------------------------
      LOOP:  cpu time    1.4665: real time    1.4746

 eigenvalue-minimisations  :   280
 total energy-change (2. order) :-0.7063917E+02  (-0.7036238E+02)
 number of electron      12.0000000 magnetization       2.0000000
 augmentation part       12.0000000 magnetization       2.0000000

 Free energy of the ion-electron system (eV)
  ---------------------------------------------------
  alpha Z        PSCENC =         0.23237360
  Ewald energy   TEWEN  =       200.34866435
  -Hartree energ DENC   =      -927.37453505
  -exchange      EXHF   =         0.00000000
  -V(xc)+E(xc)   XCENC  =        54.74479765
  PAW double counting   =       491.72839742     -495.41806911
  entropy T*S    EENTRO =        -0.00010159
  eigenvalues    EBANDS =      -177.24231830
  atomic energy  EATOM  =       864.52639207
  Solvation  Ediel_sol  =         0.00000000
  ---------------------------------------------------
  free energy    TOTEN  =        11.54560103 eV

  energy without entropy =       11.54570262  energy(sigma->0) =       11.54565183


--------------------------------------------------------------------------------------------------------




--------------------------------------- Iteration      1(   3)  ---------------------------------------


     EDDAV:  cpu time    1.4035: real time    1.4072
       DOS:  cpu time    0.0001: real time    0.0001
    --------------------------------------------
      LOOP:  cpu time    1.4036: real time    1.4073

 eigenvalue-minimisations  :   268
 total energy-change (2. order) :-0.1574653E+02  (-0.8267004E+01)
 number of electron      12.0000000 magnetization       2.0000000
 augmentation part       12.0000000 magnetization       2.0000000

 Free energy of the ion-electron system (eV)
  ---------------------------------------------------
  alpha Z        PSCENC =         0.23237360
  Ewald energy   TEWEN  =       200.34866435
  -Hartree energ DENC   =      -927.37453505
  -exchange      EXHF   =         0.00000000
  -V(xc)+E(xc)   XCENC  =        54.74479765
  PAW double counting   =       491.72839742     -495.41806911
  entropy T*S    EENTRO =        -0.00000000
  eigenvalues    EBANDS =      -192.98895167
  atomic energy  EATOM  =       864.52639207
  Solvation  Ediel_sol  =         0.00000000
  ---------------------------------------------------
  free energy    TOTEN  =        -4.20093075 eV

  energy without entropy =       -4.20093075  energy(sigma->0) =       -4.20093075


--------------------------------------------------------------------------------------------------------




--------------------------------------- Iteration      1(   4)  ---------------------------------------


     EDDAV:  cpu time    1.5180: real time    1.5219
       DOS:  cpu time    0.0001: real time    0.0001
    --------------------------------------------
      LOOP:  cpu time    1.5181: real time    1.5220

 eigenvalue-minimisations  :   292
 total energy-change (2. order) :-0.5265217E+01  (-0.4380684E+01)
 number of electron      12.0000000 magnetization       2.0000000
 augmentation part       12.0000000 magnetization       2.0000000

 Free energy of the ion-electron system (eV)
  ---------------------------------------------------
  alpha Z        PSCENC =         0.23237360
  Ewald energy   TEWEN  =       200.34866435
  -Hartree energ DENC   =      -927.37453505
  -exchange      EXHF   =         0.00000000
  -V(xc)+E(xc)   XCENC  =        54.74479765
  PAW double counting   =       491.72839742     -495.41806911
  entropy T*S    EENTRO =        -0.00000000
  eigenvalues    EBANDS =      -198.25416853
  atomic energy  EATOM  =       864.52639207
  Solvation  Ediel_sol  =         0.00000000
  ---------------------------------------------------
  free energy    TOTEN  =        -9.46614761 eV

  energy without entropy =       -9.46614761  energy(sigma->0) =       -9.46614761


--------------------------------------------------------------------------------------------------------




--------------------------------------- Iteration      1(   5)  ---------------------------------------


     EDDAV:  cpu time    1.2504: real time    1.2536
       DOS:  cpu time    0.0001: real time    0.0001
    CHARGE:  cpu time    0.4973: real time    0.4985
    MIXING:  cpu time    0.0115: real time    0.0115
    --------------------------------------------
      LOOP:  cpu time    1.7593: real time    1.7637

 eigenvalue-minimisations  :   232
 total energy-change (2. order) :-0.3334620E+00  (-0.3334187E+00)
 number of electron      12.0000000 magnetization       2.0000000
 augmentation part        1.1609104 magnetization       0.4867061

 Broyden mixing:
  rms(total) = 0.63020E+00    rms(broyden)= 0.62370E+00
  rms(prec ) = 0.64377E+00
  weight for this iteration     100.00

 Free energy of the ion-electron system (eV)
  ---------------------------------------------------
  alpha Z        PSCENC =         0.23237360
  Ewald energy   TEWEN  =       200.34866435
  -Hartree energ DENC   =      -927.37453505
  -exchange      EXHF   =         0.00000000
  -V(xc)+E(xc)   XCENC  =        54.74479765
  PAW double counting   =       491.72839742     -495.41806911
  entropy T*S    EENTRO =        -0.00000000
  eigenvalues    EBANDS =      -198.58763049
  atomic energy  EATOM  =       864.52639207
  Solvation  Ediel_sol  =         0.00000000
  ---------------------------------------------------
  free energy    TOTEN  =        -9.79960957 eV

  energy without entropy =       -9.79960957  energy(sigma->0) =       -9.79960957


--------------------------------------------------------------------------------------------------------




--------------------------------------- Iteration      1(   6)  ---------------------------------------


    POTLOK:  cpu time    0.5644: real time    0.5659
    SETDIJ:  cpu time    0.2871: real time    0.2878
     EDDAV:  cpu time    1.1038: real time    1.1073
       DOS:  cpu time    0.0001: real time    0.0001
    CHARGE:  cpu time    0.4944: real time    0.4956
    MIXING:  cpu time    0.0119: real time    0.0119
    --------------------------------------------
      LOOP:  cpu time    2.4617: real time    2.4686

 eigenvalue-minimisations  :   196
 total energy-change (2. order) : 0.2341145E+00  (-0.1178608E+00)
 number of electron      12.0000000 magnetization       2.0000000
 augmentation part        1.1457782 magnetization       0.4997316

 Broyden mixing:
  rms(total) = 0.29179E+00    rms(broyden)= 0.29078E+00
  rms(prec ) = 0.30108E+00
  weight for this iteration     100.00

 eigenvalues of (default mixing * dielectric matrix)
  average eigenvalue GAMMA=   0.7549
  0.7549

 Free energy of the ion-electron system (eV)
  ---------------------------------------------------
  alpha Z        PSCENC =         0.23237360
  Ewald energy   TEWEN  =       200.34866435
  -Hartree energ DENC   =      -930.55601763
  -exchange      EXHF   =         0.00000000
  -V(xc)+E(xc)   XCENC  =        55.45022828
  PAW double counting   =       524.81590816     -528.42663193
  entropy T*S    EENTRO =        -0.00000000
  eigenvalues    EBANDS =      -195.95641194
  atomic energy  EATOM  =       864.52639207
  Solvation  Ediel_sol  =         0.00000000
  ---------------------------------------------------
  free energy    TOTEN  =        -9.56549505 eV

  energy without entropy =       -9.56549505  energy(sigma->0) =       -9.56549505


--------------------------------------------------------------------------------------------------------




--------------------------------------- Iteration      1(   7)  ---------------------------------------


    POTLOK:  cpu time    0.5604: real time    0.5618
    SETDIJ:  cpu time    0.2914: real time    0.2923
     EDDAV:  cpu time    1.0901: real time    1.0927
       DOS:  cpu time    0.0001: real time    0.0001
    CHARGE:  cpu time    0.4961: real time    0.4974
    MIXING:  cpu time    0.0123: real time    0.0123
    --------------------------------------------
      LOOP:  cpu time    2.4504: real time    2.4567

 eigenvalue-minimisations  :   192
 total energy-change (2. order) :-0.2793961E+00  (-0.1922881E-01)
 number of electron      12.0000000 magnetization       2.0000000
 augmentation part        1.1385625 magnetization       0.4908441

 Broyden mixing:
  rms(total) = 0.14017E+00    rms(broyden)= 0.14012E+00
  rms(prec ) = 0.14637E+00
  weight for this iteration     100.00

 eigenvalues of (default mixing * dielectric matrix)
  average eigenvalue GAMMA=   1.1736
  1.6382  0.7089

 Free energy of the ion-electron system (eV)
  ---------------------------------------------------
  alpha Z        PSCENC =         0.23237360
  Ewald energy   TEWEN  =       200.34866435
  -Hartree energ DENC   =      -931.98117501
  -exchange      EXHF   =         0.00000000
  -V(xc)+E(xc)   XCENC  =        55.28579309
  PAW double counting   =       541.56487998     -545.24591465
  entropy T*S    EENTRO =        -0.00000000
  eigenvalues    EBANDS =      -194.57590461
  atomic energy  EATOM  =       864.52639207
  Solvation  Ediel_sol  =         0.00000000
  ---------------------------------------------------
  free energy    TOTEN  =        -9.84489118 eV

  energy without entropy =       -9.84489118  energy(sigma->0) =       -9.84489118


--------------------------------------------------------------------------------------------------------




--------------------------------------- Iteration      1(   8)  ---------------------------------------


    POTLOK:  cpu time    0.5625: real time    0.5640
    SETDIJ:  cpu time    0.2871: real time    0.2878
     EDDAV:  cpu time    1.1686: real time    1.1714
       DOS:  cpu time    0.0001: real time    0.0001
    CHARGE:  cpu time    0.4966: real time    0.4978
    MIXING:  cpu time    0.0124: real time    0.0124
    --------------------------------------------
      LOOP:  cpu time    2.5273: real time    2.5335

 eigenvalue-minimisations  :   212
 total energy-change (2. order) : 0.1418746E-02  (-0.7244585E-02)
 number of electron      12.0000000 magnetization       2.0000000
 augmentation part        1.1322246 magnetization       0.4918937

 Broyden mixing:
  rms(total) = 0.40225E-01    rms(broyden)= 0.40173E-01
  rms(prec ) = 0.41206E-01
  weight for this iteration     100.00

 eigenvalues of (default mixing * dielectric matrix)
  average eigenvalue GAMMA=   1.1511
  2.0214  0.7721  0.6596

 Free energy of the ion-electron system (eV)
  ---------------------------------------------------
  alpha Z        PSCENC =         0.23237360
  Ewald energy   TEWEN  =       200.34866435
  -Hartree energ DENC   =      -933.45896910
  -exchange      EXHF   =         0.00000000
  -V(xc)+E(xc)   XCENC  =        55.41579087
  PAW double counting   =       563.25886099     -566.88751988
  entropy T*S    EENTRO =        -0.00000000
  eigenvalues    EBANDS =      -193.27906534
  atomic energy  EATOM  =       864.52639207
  Solvation  Ediel_sol  =         0.00000000
  ---------------------------------------------------
  free energy    TOTEN  =        -9.84347243 eV

  energy without entropy =       -9.84347243  energy(sigma->0) =       -9.84347243


--------------------------------------------------------------------------------------------------------




--------------------------------------- Iteration      1(   9)  ---------------------------------------


    POTLOK:  cpu time    0.5610: real time    0.5626
    SETDIJ:  cpu time    0.2872: real time    0.2879
     EDDAV:  cpu time    1.1794: real time    1.1825
       DOS:  cpu time    0.0001: real time    0.0001
    CHARGE:  cpu time    0.4951: real time    0.4963
    MIXING:  cpu time    0.0126: real time    0.0126
    --------------------------------------------
      LOOP:  cpu time    2.5355: real time    2.5421

 eigenvalue-minimisations  :   212
 total energy-change (2. order) :-0.8923455E-02  (-0.5766999E-03)
 number of electron      12.0000000 magnetization       2.0000000
 augmentation part        1.1323063 magnetization       0.4910997

 Broyden mixing:
  rms(total) = 0.18102E-01    rms(broyden)= 0.18097E-01
  rms(prec ) = 0.19039E-01
  weight for this iteration     100.00

 eigenvalues of (default mixing * dielectric matrix)
  average eigenvalue GAMMA=   1.2674
  2.1476  1.5178  0.7478  0.6564

 Free energy of the ion-electron system (eV)
  ---------------------------------------------------
  alpha Z        PSCENC =         0.23237360
  Ewald energy   TEWEN  =       200.34866435
  -Hartree energ DENC   =      -933.58429744
  -exchange      EXHF   =         0.00000000
  -V(xc)+E(xc)   XCENC  =        55.42021851
  PAW double counting   =       566.63579224     -570.25827819
  entropy T*S    EENTRO =        -0.00000000
  eigenvalues    EBANDS =      -193.17326103
  atomic energy  EATOM  =       864.52639207
  Solvation  Ediel_sol  =         0.00000000
  ---------------------------------------------------
  free energy    TOTEN  =        -9.85239589 eV

  energy without entropy =       -9.85239589  energy(sigma->0) =       -9.85239589


--------------------------------------------------------------------------------------------------------




--------------------------------------- Iteration      1(  10)  ---------------------------------------


    POTLOK:  cpu time    0.5619: real time    0.5634
    SETDIJ:  cpu time    0.2873: real time    0.2880
     EDDAV:  cpu time    1.1854: real time    1.1891
       DOS:  cpu time    0.0001: real time    0.0001
    CHARGE:  cpu time    0.4968: real time    0.4980
    MIXING:  cpu time    0.0132: real time    0.0132
    --------------------------------------------
      LOOP:  cpu time    2.5446: real time    2.5517

 eigenvalue-minimisations  :   216
 total energy-change (2. order) :-0.1136311E-02  (-0.7424033E-04)
 number of electron      12.0000000 magnetization       2.0000000
 augmentation part        1.1331937 magnetization       0.4913482

 Broyden mixing:
  rms(total) = 0.40541E-02    rms(broyden)= 0.40522E-02
  rms(prec ) = 0.45147E-02
  weight for this iteration     100.00

 eigenvalues of (default mixing * dielectric matrix)
  average eigenvalue GAMMA=   1.2735
  2.3831  1.7668  0.8237  0.7045  0.6896

 Free energy of the ion-electron system (eV)
  ---------------------------------------------------
  alpha Z        PSCENC =         0.23237360
  Ewald energy   TEWEN  =       200.34866435
  -Hartree energ DENC   =      -933.63403635
  -exchange      EXHF   =         0.00000000
  -V(xc)+E(xc)   XCENC  =        55.41511647
  PAW double counting   =       569.18518417     -572.78340085
  entropy T*S    EENTRO =        -0.00000000
  eigenvalues    EBANDS =      -193.14382565
  atomic energy  EATOM  =       864.52639207
  Solvation  Ediel_sol  =         0.00000000
  ---------------------------------------------------
  free energy    TOTEN  =        -9.85353220 eV

  energy without entropy =       -9.85353220  energy(sigma->0) =       -9.85353220


--------------------------------------------------------------------------------------------------------




--------------------------------------- Iteration      1(  11)  ---------------------------------------


    POTLOK:  cpu time    0.5623: real time    0.5660
    SETDIJ:  cpu time    0.2874: real time    0.2880
     EDDAV:  cpu time    1.1016: real time    1.1045
       DOS:  cpu time    0.0001: real time    0.0001
    CHARGE:  cpu time    0.4931: real time    0.4963
    MIXING:  cpu time    0.0134: real time    0.0134
    --------------------------------------------
      LOOP:  cpu time    2.4579: real time    2.4684

 eigenvalue-minimisations  :   196
 total energy-change (2. order) :-0.2659133E-03  (-0.6408491E-05)
 number of electron      12.0000000 magnetization       2.0000000
 augmentation part        1.1331366 magnetization       0.4912462

 Broyden mixing:
  rms(total) = 0.14126E-02    rms(broyden)= 0.14123E-02
  rms(prec ) = 0.19840E-02
  weight for this iteration     100.00

 eigenvalues of (default mixing * dielectric matrix)
  average eigenvalue GAMMA=   1.2353
  2.4755  1.7819  1.0270  0.7815  0.6823  0.6637

 Free energy of the ion-electron system (eV)
  ---------------------------------------------------
  alpha Z        PSCENC =         0.23237360
  Ewald energy   TEWEN  =       200.34866435
  -Hartree energ DENC   =      -933.73004385
  -exchange      EXHF   =         0.00000000
  -V(xc)+E(xc)   XCENC  =        55.41839475
  PAW double counting   =       569.73440058     -573.33225860
  entropy T*S    EENTRO =        -0.00000000
  eigenvalues    EBANDS =      -193.05172101
  atomic energy  EATOM  =       864.52639207
  Solvation  Ediel_sol  =         0.00000000
  ---------------------------------------------------
  free energy    TOTEN  =        -9.85379811 eV

  energy without entropy =       -9.85379811  energy(sigma->0) =       -9.85379811


--------------------------------------------------------------------------------------------------------




--------------------------------------- Iteration      1(  12)  ---------------------------------------


    POTLOK:  cpu time    0.5616: real time    0.5631
    SETDIJ:  cpu time    0.2871: real time    0.2877
     EDDAV:  cpu time    1.1681: real time    1.1709
       DOS:  cpu time    0.0001: real time    0.0001
    CHARGE:  cpu time    0.4947: real time    0.4959
    MIXING:  cpu time    0.0138: real time    0.0139
    --------------------------------------------
      LOOP:  cpu time    2.5254: real time    2.5316

 eigenvalue-minimisations  :   212
 total energy-change (2. order) :-0.1750498E-03  (-0.1639513E-05)
 number of electron      12.0000000 magnetization       2.0000000
 augmentation part        1.1330566 magnetization       0.4912382

 Broyden mixing:
  rms(total) = 0.69101E-03    rms(broyden)= 0.69069E-03
  rms(prec ) = 0.12503E-02
  weight for this iteration     100.00

 eigenvalues of (default mixing * dielectric matrix)
  average eigenvalue GAMMA=   1.2431
  2.5170  1.8313  1.3865  0.8787  0.7529  0.6915  0.6439

 Free energy of the ion-electron system (eV)
  ---------------------------------------------------
  alpha Z        PSCENC =         0.23237360
  Ewald energy   TEWEN  =       200.34866435
  -Hartree energ DENC   =      -933.80769336
  -exchange      EXHF   =         0.00000000
  -V(xc)+E(xc)   XCENC  =        55.42131391
  PAW double counting   =       569.87720742     -573.47417734
  entropy T*S    EENTRO =        -0.00000000
  eigenvalues    EBANDS =      -192.97805380
  atomic energy  EATOM  =       864.52639207
  Solvation  Ediel_sol  =         0.00000000
  ---------------------------------------------------
  free energy    TOTEN  =        -9.85397316 eV

  energy without entropy =       -9.85397316  energy(sigma->0) =       -9.85397316


--------------------------------------------------------------------------------------------------------




--------------------------------------- Iteration      1(  13)  ---------------------------------------


    POTLOK:  cpu time    0.5624: real time    0.5640
    SETDIJ:  cpu time    0.2868: real time    0.2875
     EDDAV:  cpu time    1.1160: real time    1.1187
       DOS:  cpu time    0.0001: real time    0.0001
    CHARGE:  cpu time    0.4942: real time    0.4959
    MIXING:  cpu time    0.0164: real time    0.0164
    --------------------------------------------
      LOOP:  cpu time    2.4759: real time    2.4826

 eigenvalue-minimisations  :   196
 total energy-change (2. order) :-0.1171299E-03  (-0.5953947E-06)
 number of electron      12.0000000 magnetization       2.0000000
 augmentation part        1.1330142 magnetization       0.4912106

 Broyden mixing:
  rms(total) = 0.43050E-03    rms(broyden)= 0.43003E-03
  rms(prec ) = 0.90972E-03
  weight for this iteration     100.00

 eigenvalues of (default mixing * dielectric matrix)
  average eigenvalue GAMMA=   1.2459
  2.5295  2.0076  1.5118  1.0883  0.7817  0.7339  0.6740  0.6402

 Free energy of the ion-electron system (eV)
  ---------------------------------------------------
  alpha Z        PSCENC =         0.23237360
  Ewald energy   TEWEN  =       200.34866435
  -Hartree energ DENC   =      -933.85608581
  -exchange      EXHF   =         0.00000000
  -V(xc)+E(xc)   XCENC  =        55.42254521
  PAW double counting   =       569.85160209     -573.44919028
  entropy T*S    EENTRO =        -0.00000000
  eigenvalues    EBANDS =      -192.93039152
  atomic energy  EATOM  =       864.52639207
  Solvation  Ediel_sol  =         0.00000000
  ---------------------------------------------------
  free energy    TOTEN  =        -9.85409029 eV

  energy without entropy =       -9.85409029  energy(sigma->0) =       -9.85409029


--------------------------------------------------------------------------------------------------------




--------------------------------------- Iteration      1(  14)  ---------------------------------------


    POTLOK:  cpu time    0.5624: real time    0.5651
    SETDIJ:  cpu time    0.2872: real time    0.2879
     EDDAV:  cpu time    1.0892: real time    1.0941
       DOS:  cpu time    0.0001: real time    0.0001
    CHARGE:  cpu time    0.4937: real time    0.4949
    MIXING:  cpu time    0.0149: real time    0.0149
    --------------------------------------------
      LOOP:  cpu time    2.4474: real time    2.4570

 eigenvalue-minimisations  :   192
 total energy-change (2. order) :-0.8466608E-04  (-0.5404055E-06)
 number of electron      12.0000000 magnetization       2.0000000
 augmentation part        1.1330157 magnetization       0.4912102

 Broyden mixing:
  rms(total) = 0.27979E-03    rms(broyden)= 0.27939E-03
  rms(prec ) = 0.59755E-03
  weight for this iteration     100.00

 eigenvalues of (default mixing * dielectric matrix)
  average eigenvalue GAMMA=   1.3766
  2.9125  2.4921  1.7036  1.5248  0.9802  0.7701  0.7171  0.6565  0.6326

 Free energy of the ion-electron system (eV)
  ---------------------------------------------------
  alpha Z        PSCENC =         0.23237360
  Ewald energy   TEWEN  =       200.34866435
  -Hartree energ DENC   =      -933.89909331
  -exchange      EXHF   =         0.00000000
  -V(xc)+E(xc)   XCENC  =        55.42301539
  PAW double counting   =       569.77591224     -573.37346433
  entropy T*S    EENTRO =        -0.00000000
  eigenvalues    EBANDS =      -192.88797496
  atomic energy  EATOM  =       864.52639207
  Solvation  Ediel_sol  =         0.00000000
  ---------------------------------------------------
  free energy    TOTEN  =        -9.85417496 eV

  energy without entropy =       -9.85417496  energy(sigma->0) =       -9.85417496


--------------------------------------------------------------------------------------------------------




--------------------------------------- Iteration      1(  15)  ---------------------------------------


    POTLOK:  cpu time    0.5603: real time    0.5618
    SETDIJ:  cpu time    0.2871: real time    0.2878
     EDDAV:  cpu time    1.0854: real time    1.0880
       DOS:  cpu time    0.0001: real time    0.0001
    CHARGE:  cpu time    0.4946: real time    0.4958
    MIXING:  cpu time    0.0152: real time    0.0152
    --------------------------------------------
      LOOP:  cpu time    2.4428: real time    2.4488

 eigenvalue-minimisations  :   192
 total energy-change (2. order) :-0.6283487E-04  (-0.6302085E-06)
 number of electron      12.0000000 magnetization       2.0000000
 augmentation part        1.1329992 magnetization       0.4912074

 Broyden mixing:
  rms(total) = 0.17371E-03    rms(broyden)= 0.17309E-03
  rms(prec ) = 0.36986E-03
  weight for this iteration     100.00

 eigenvalues of (default mixing * dielectric matrix)
  average eigenvalue GAMMA=   1.3798
  3.3108  2.5016  1.8058  1.5383  1.0571  0.8002  0.7727  0.7251  0.6590  0.6275

 Free energy of the ion-electron system (eV)
  ---------------------------------------------------
  alpha Z        PSCENC =         0.23237360
  Ewald energy   TEWEN  =       200.34866435
  -Hartree energ DENC   =      -933.93850503
  -exchange      EXHF   =         0.00000000
  -V(xc)+E(xc)   XCENC  =        55.42372134
  PAW double counting   =       569.75008733     -573.34773968
  entropy T*S    EENTRO =        -0.00000000
  eigenvalues    EBANDS =      -192.84923176
  atomic energy  EATOM  =       864.52639207
  Solvation  Ediel_sol  =         0.00000000
  ---------------------------------------------------
  free energy    TOTEN  =        -9.85423779 eV

  energy without entropy =       -9.85423779  energy(sigma->0) =       -9.85423779


--------------------------------------------------------------------------------------------------------




--------------------------------------- Iteration      1(  16)  ---------------------------------------


    POTLOK:  cpu time    0.5606: real time    0.5623
    SETDIJ:  cpu time    0.2869: real time    0.2875
     EDDAV:  cpu time    1.1675: real time    1.1703
       DOS:  cpu time    0.0001: real time    0.0001
    CHARGE:  cpu time    0.4988: real time    0.5000
    MIXING:  cpu time    0.0156: real time    0.0156
    --------------------------------------------
      LOOP:  cpu time    2.5294: real time    2.5358

 eigenvalue-minimisations  :   212
 total energy-change (2. order) :-0.6992117E-04  (-0.3434692E-06)
 number of electron      12.0000000 magnetization       2.0000000
 augmentation part        1.1329866 magnetization       0.4912078

 Broyden mixing:
  rms(total) = 0.11996E-03    rms(broyden)= 0.11903E-03
  rms(prec ) = 0.23748E-03
  weight for this iteration     100.00

 eigenvalues of (default mixing * dielectric matrix)
  average eigenvalue GAMMA=   1.5122
  4.2250  2.5764  2.2032  1.7642  1.3060  1.0663  0.7574  0.7477  0.7065  0.6549
  0.6267

 Free energy of the ion-electron system (eV)
  ---------------------------------------------------
  alpha Z        PSCENC =         0.23237360
  Ewald energy   TEWEN  =       200.34866435
  -Hartree energ DENC   =      -933.95869817
  -exchange      EXHF   =         0.00000000
  -V(xc)+E(xc)   XCENC  =        55.42403093
  PAW double counting   =       569.75969102     -573.35726793
  entropy T*S    EENTRO =        -0.00000000
  eigenvalues    EBANDS =      -192.82949357
  atomic energy  EATOM  =       864.52639207
  Solvation  Ediel_sol  =         0.00000000
  ---------------------------------------------------
  free energy    TOTEN  =        -9.85430771 eV

  energy without entropy =       -9.85430771  energy(sigma->0) =       -9.85430771


--------------------------------------------------------------------------------------------------------




--------------------------------------- Iteration      1(  17)  ---------------------------------------


    POTLOK:  cpu time    0.5583: real time    0.5598
    SETDIJ:  cpu time    0.2875: real time    0.2882
     EDDAV:  cpu time    1.1863: real time    1.1891
       DOS:  cpu time    0.0001: real time    0.0001
    CHARGE:  cpu time    0.4958: real time    0.4970
    MIXING:  cpu time    0.0165: real time    0.0166
    --------------------------------------------
      LOOP:  cpu time    2.5445: real time    2.5508

 eigenvalue-minimisations  :   216
 total energy-change (2. order) :-0.4669693E-04  (-0.1745270E-06)
 number of electron      12.0000000 magnetization       2.0000000
 augmentation part        1.1329832 magnetization       0.4912049

 Broyden mixing:
  rms(total) = 0.64550E-04    rms(broyden)= 0.62870E-04
  rms(prec ) = 0.13186E-03
  weight for this iteration     100.00

 eigenvalues of (default mixing * dielectric matrix)
  average eigenvalue GAMMA=   1.5984
  5.4048  2.7313  2.4339  1.7953  1.3603  1.0702  0.8874  0.8015  0.7328  0.6856
  0.6518  0.6258

 Free energy of the ion-electron system (eV)
  ---------------------------------------------------
  alpha Z        PSCENC =         0.23237360
  Ewald energy   TEWEN  =       200.34866435
  -Hartree energ DENC   =      -933.97091366
  -exchange      EXHF   =         0.00000000
  -V(xc)+E(xc)   XCENC  =        55.42402335
  PAW double counting   =       569.76017533     -573.35765307
  entropy T*S    EENTRO =        -0.00000000
  eigenvalues    EBANDS =      -192.81741637
  atomic energy  EATOM  =       864.52639207
  Solvation  Ediel_sol  =         0.00000000
  ---------------------------------------------------
  free energy    TOTEN  =        -9.85435441 eV

  energy without entropy =       -9.85435441  energy(sigma->0) =       -9.85435441


--------------------------------------------------------------------------------------------------------




--------------------------------------- Iteration      1(  18)  ---------------------------------------


    POTLOK:  cpu time    0.5589: real time    0.5606
    SETDIJ:  cpu time    0.2871: real time    0.2878
     EDDAV:  cpu time    1.2159: real time    1.2188
       DOS:  cpu time    0.0001: real time    0.0001
    CHARGE:  cpu time    0.4967: real time    0.4979
    MIXING:  cpu time    0.0168: real time    0.0169
    --------------------------------------------
      LOOP:  cpu time    2.5755: real time    2.5820

 eigenvalue-minimisations  :   224
 total energy-change (2. order) :-0.2427318E-04  (-0.6846913E-07)
 number of electron      12.0000000 magnetization       2.0000000
 augmentation part        1.1329815 magnetization       0.4912045

 Broyden mixing:
  rms(total) = 0.48084E-04    rms(broyden)= 0.45812E-04
  rms(prec ) = 0.89596E-04
  weight for this iteration     100.00

 eigenvalues of (default mixing * dielectric matrix)
  average eigenvalue GAMMA=   1.6513
  6.1047  2.8931  2.4875  1.8183  1.4269  1.3832  1.1002  0.7864  0.7864  0.7332
  0.6713  0.6500  0.6255

 Free energy of the ion-electron system (eV)
  ---------------------------------------------------
  alpha Z        PSCENC =         0.23237360
  Ewald energy   TEWEN  =       200.34866435
  -Hartree energ DENC   =      -933.97106004
  -exchange      EXHF   =         0.00000000
  -V(xc)+E(xc)   XCENC  =        55.42389577
  PAW double counting   =       569.76306776     -573.36053964
  entropy T*S    EENTRO =        -0.00000000
  eigenvalues    EBANDS =      -192.81717256
  atomic energy  EATOM  =       864.52639207
  Solvation  Ediel_sol  =         0.00000000
  ---------------------------------------------------
  free energy    TOTEN  =        -9.85437868 eV

  energy without entropy =       -9.85437868  energy(sigma->0) =       -9.85437868


--------------------------------------------------------------------------------------------------------




--------------------------------------- Iteration      1(  19)  ---------------------------------------


    POTLOK:  cpu time    0.5583: real time    0.5598
    SETDIJ:  cpu time    0.2867: real time    0.2874
     EDDAV:  cpu time    1.1508: real time    1.1536
       DOS:  cpu time    0.0001: real time    0.0001
    CHARGE:  cpu time    0.4934: real time    0.4947
    MIXING:  cpu time    0.0175: real time    0.0175
    --------------------------------------------
      LOOP:  cpu time    2.5068: real time    2.5130

 eigenvalue-minimisations  :   208
 total energy-change (2. order) :-0.2926598E-04  (-0.1166839E-06)
 number of electron      12.0000000 magnetization       2.0000000
 augmentation part        1.1329825 magnetization       0.4912060

 Broyden mixing:
  rms(total) = 0.28460E-04    rms(broyden)= 0.24431E-04
  rms(prec ) = 0.43732E-04
  weight for this iteration     100.00
  WARNING: grid for Broyden might be to small

 eigenvalues of (default mixing * dielectric matrix)
  average eigenvalue GAMMA=   1.8157
  7.3180  3.7296  2.5792  2.4050  1.7853  1.3595  1.0567  0.9799  0.8072  0.7463
  0.7133  0.6694  0.6261  0.6440

 Free energy of the ion-electron system (eV)
  ---------------------------------------------------
  alpha Z        PSCENC =         0.23237360
  Ewald energy   TEWEN  =       200.34866435
  -Hartree energ DENC   =      -933.96932859
  -exchange      EXHF   =         0.00000000
  -V(xc)+E(xc)   XCENC  =        55.42374387
  PAW double counting   =       569.76256415     -573.36003439
  entropy T*S    EENTRO =        -0.00000000
  eigenvalues    EBANDS =      -192.81878301
  atomic energy  EATOM  =       864.52639207
  Solvation  Ediel_sol  =         0.00000000
  ---------------------------------------------------
  free energy    TOTEN  =        -9.85440795 eV

  energy without entropy =       -9.85440795  energy(sigma->0) =       -9.85440795


--------------------------------------------------------------------------------------------------------




--------------------------------------- Iteration      1(  20)  ---------------------------------------


    POTLOK:  cpu time    0.5579: real time    0.5597
    SETDIJ:  cpu time    0.2869: real time    0.2876
     EDDAV:  cpu time    1.1994: real time    1.2023
       DOS:  cpu time    0.0001: real time    0.0001
    CHARGE:  cpu time    0.4961: real time    0.4973
    MIXING:  cpu time    0.0185: real time    0.0185
    --------------------------------------------
      LOOP:  cpu time    2.5590: real time    2.5655

 eigenvalue-minimisations  :   220
 total energy-change (2. order) :-0.9156635E-05  (-0.2707416E-07)
 number of electron      12.0000000 magnetization       2.0000000
 augmentation part        1.1329792 magnetization       0.4912043

 Broyden mixing:
  rms(total) = 0.20346E-04    rms(broyden)= 0.14175E-04
  rms(prec ) = 0.26810E-04
  weight for this iteration     100.00
  WARNING: grid for Broyden might be to small

 eigenvalues of (default mixing * dielectric matrix)
  average eigenvalue GAMMA=   1.8293
  7.9054  4.1056  2.6332  2.4643  1.7840  1.3840  1.0899  1.0899  0.8104  0.8104
  0.7345  0.6886  0.6735  0.6276  0.6380

 Free energy of the ion-electron system (eV)
  ---------------------------------------------------
  alpha Z        PSCENC =         0.23237360
  Ewald energy   TEWEN  =       200.34866435
  -Hartree energ DENC   =      -933.96893278
  -exchange      EXHF   =         0.00000000
  -V(xc)+E(xc)   XCENC  =        55.42371335
  PAW double counting   =       569.76083676     -573.35833210
  entropy T*S    EENTRO =        -0.00000000
  eigenvalues    EBANDS =      -192.81913234
  atomic energy  EATOM  =       864.52639207
  Solvation  Ediel_sol  =         0.00000000
  ---------------------------------------------------
  free energy    TOTEN  =        -9.85441711 eV

  energy without entropy =       -9.85441711  energy(sigma->0) =       -9.85441711


--------------------------------------------------------------------------------------------------------




--------------------------------------- Iteration      1(  21)  ---------------------------------------


    POTLOK:  cpu time    0.5586: real time    0.5601
    SETDIJ:  cpu time    0.2870: real time    0.2877
     EDDAV:  cpu time    1.1315: real time    1.1342
       DOS:  cpu time    0.0001: real time    0.0001
    CHARGE:  cpu time    0.4935: real time    0.4948
    MIXING:  cpu time    0.0188: real time    0.0188
    --------------------------------------------
      LOOP:  cpu time    2.4896: real time    2.4957

 eigenvalue-minimisations  :   204
 total energy-change (2. order) :-0.3705852E-05  (-0.5876441E-08)
 number of electron      12.0000000 magnetization       2.0000000
 augmentation part        1.1329796 magnetization       0.4912043

 Broyden mixing:
  rms(total) = 0.17481E-04    rms(broyden)= 0.96409E-05
  rms(prec ) = 0.17953E-04
  weight for this iteration     100.00
  WARNING: grid for Broyden might be to small

 eigenvalues of (default mixing * dielectric matrix)
  average eigenvalue GAMMA=   1.9163
  8.4229  4.6186  2.7915  2.4926  2.2373  1.7761  1.3637  1.0301  1.0301  0.7826
  0.7826  0.7280  0.6848  0.6590  0.6265  0.6336

 Free energy of the ion-electron system (eV)
  ---------------------------------------------------
  alpha Z        PSCENC =         0.23237360
  Ewald energy   TEWEN  =       200.34866435
  -Hartree energ DENC   =      -933.96856466
  -exchange      EXHF   =         0.00000000
  -V(xc)+E(xc)   XCENC  =        55.42368828
  PAW double counting   =       569.75966104     -573.35714520
  entropy T*S    EENTRO =        -0.00000000
  eigenvalues    EBANDS =      -192.81949028
  atomic energy  EATOM  =       864.52639207
  Solvation  Ediel_sol  =         0.00000000
  ---------------------------------------------------
  free energy    TOTEN  =        -9.85442081 eV

  energy without entropy =       -9.85442081  energy(sigma->0) =       -9.85442081


--------------------------------------------------------------------------------------------------------




--------------------------------------- Iteration      1(  22)  ---------------------------------------


    POTLOK:  cpu time    0.5607: real time    0.5624
    SETDIJ:  cpu time    0.2866: real time    0.2872
     EDDAV:  cpu time    1.0996: real time    1.1023
       DOS:  cpu time    0.0001: real time    0.0001
    CHARGE:  cpu time    0.4941: real time    0.4953
    MIXING:  cpu time    0.0195: real time    0.0195
    --------------------------------------------
      LOOP:  cpu time    2.4606: real time    2.4669

 eigenvalue-minimisations  :   196
 total energy-change (2. order) :-0.2240412E-05  (-0.3472293E-08)
 number of electron      12.0000000 magnetization       2.0000000
 augmentation part        1.1329796 magnetization       0.4912045

 Broyden mixing:
  rms(total) = 0.15380E-04    rms(broyden)= 0.48903E-05
  rms(prec ) = 0.99303E-05
  weight for this iteration     100.00
  WARNING: grid for Broyden might be to small

 eigenvalues of (default mixing * dielectric matrix)
  average eigenvalue GAMMA=   1.9274
  8.7482  4.9944  3.0615  2.5549  2.4140  1.7798  1.3830  1.0434  1.0434  0.8342
  0.8342  0.7470  0.7126  0.7020  0.6226  0.6456  0.6456

 Free energy of the ion-electron system (eV)
  ---------------------------------------------------
  alpha Z        PSCENC =         0.23237360
  Ewald energy   TEWEN  =       200.34866435
  -Hartree energ DENC   =      -933.96859645
  -exchange      EXHF   =         0.00000000
  -V(xc)+E(xc)   XCENC  =        55.42368674
  PAW double counting   =       569.75988970     -573.35736135
  entropy T*S    EENTRO =        -0.00000000
  eigenvalues    EBANDS =      -192.81947171
  atomic energy  EATOM  =       864.52639207
  Solvation  Ediel_sol  =         0.00000000
  ---------------------------------------------------
  free energy    TOTEN  =        -9.85442305 eV

  energy without entropy =       -9.85442305  energy(sigma->0) =       -9.85442305


--------------------------------------------------------------------------------------------------------




--------------------------------------- Iteration      1(  23)  ---------------------------------------


    POTLOK:  cpu time    0.5620: real time    0.5649
    SETDIJ:  cpu time    0.2869: real time    0.2876
     EDDAV:  cpu time    1.1970: real time    1.1999
       DOS:  cpu time    0.0001: real time    0.0001
    CHARGE:  cpu time    0.4949: real time    0.4961
    MIXING:  cpu time    0.0202: real time    0.0203
    --------------------------------------------
      LOOP:  cpu time    2.5612: real time    2.5688

 eigenvalue-minimisations  :   220
 total energy-change (2. order) :-0.7454266E-06  (-0.4980303E-09)
 number of electron      12.0000000 magnetization       2.0000000
 augmentation part        1.1329794 magnetization       0.4912044

 Broyden mixing:
  rms(total) = 0.15101E-04    rms(broyden)= 0.39256E-05
  rms(prec ) = 0.72216E-05
  weight for this iteration     100.00
  WARNING: grid for Broyden might be to small

 eigenvalues of (default mixing * dielectric matrix)
  average eigenvalue GAMMA=   1.9079
  8.8884  5.1360  3.1978  2.5885  2.4019  1.7882  1.3720  1.3252  1.0161  1.0161
  0.7892  0.7892  0.7314  0.7097  0.6821  0.6220  0.6445  0.6445

 Free energy of the ion-electron system (eV)
  ---------------------------------------------------
  alpha Z        PSCENC =         0.23237360
  Ewald energy   TEWEN  =       200.34866435
  -Hartree energ DENC   =      -933.96877571
  -exchange      EXHF   =         0.00000000
  -V(xc)+E(xc)   XCENC  =        55.42369526
  PAW double counting   =       569.76014708     -573.35762044
  entropy T*S    EENTRO =        -0.00000000
  eigenvalues    EBANDS =      -192.81930000
  atomic energy  EATOM  =       864.52639207
  Solvation  Ediel_sol  =         0.00000000
  ---------------------------------------------------
  free energy    TOTEN  =        -9.85442380 eV

  energy without entropy =       -9.85442380  energy(sigma->0) =       -9.85442380


--------------------------------------------------------------------------------------------------------




--------------------------------------- Iteration      1(  24)  ---------------------------------------


    POTLOK:  cpu time    0.5700: real time    0.5718
    SETDIJ:  cpu time    0.2882: real time    0.2888
     EDDAV:  cpu time    1.0847: real time    1.0873
       DOS:  cpu time    0.0001: real time    0.0001
    CHARGE:  cpu time    0.4969: real time    0.4981
    MIXING:  cpu time    0.0229: real time    0.0229
    --------------------------------------------
      LOOP:  cpu time    2.4628: real time    2.4691

 eigenvalue-minimisations  :   192
 total energy-change (2. order) :-0.8218524E-06  (-0.2842142E-09)
 number of electron      12.0000000 magnetization       2.0000000
 augmentation part        1.1329794 magnetization       0.4912043

 Broyden mixing:
  rms(total) = 0.14739E-04    rms(broyden)= 0.21502E-05
  rms(prec ) = 0.37607E-05
  weight for this iteration     100.00
  WARNING: grid for Broyden might be to small

 eigenvalues of (default mixing * dielectric matrix)
  average eigenvalue GAMMA=   1.9974
  9.1449  5.5243  3.8667  2.7459  2.4777  2.3819  1.7796  1.3957  1.0429  1.0429
  0.9576  0.8191  0.7666  0.7366  0.7066  0.6543  0.6543  0.6218  0.6309

 Free energy of the ion-electron system (eV)
  ---------------------------------------------------
  alpha Z        PSCENC =         0.23237360
  Ewald energy   TEWEN  =       200.34866435
  -Hartree energ DENC   =      -933.96883418
  -exchange      EXHF   =         0.00000000
  -V(xc)+E(xc)   XCENC  =        55.42369633
  PAW double counting   =       569.76016026     -573.35763745
  entropy T*S    EENTRO =        -0.00000000
  eigenvalues    EBANDS =      -192.81923959
  atomic energy  EATOM  =       864.52639207
  Solvation  Ediel_sol  =         0.00000000
  ---------------------------------------------------
  free energy    TOTEN  =        -9.85442462 eV

  energy without entropy =       -9.85442462  energy(sigma->0) =       -9.85442462


--------------------------------------------------------------------------------------------------------




--------------------------------------- Iteration      1(  25)  ---------------------------------------


    POTLOK:  cpu time    0.5666: real time    0.5681
    SETDIJ:  cpu time    0.2867: real time    0.2874
     EDDAV:  cpu time    1.1808: real time    1.1836
       DOS:  cpu time    0.0001: real time    0.0001
    CHARGE:  cpu time    0.4946: real time    0.4958
    MIXING:  cpu time    0.0224: real time    0.0224
    --------------------------------------------
      LOOP:  cpu time    2.5512: real time    2.5574

 eigenvalue-minimisations  :   216
 total energy-change (2. order) :-0.4290081E-06  (-0.1157896E-09)
 number of electron      12.0000000 magnetization       2.0000000
 augmentation part        1.1329794 magnetization       0.4912043

 Broyden mixing:
  rms(total) = 0.14620E-04    rms(broyden)= 0.10602E-05
  rms(prec ) = 0.18208E-05
  weight for this iteration     100.00
  WARNING: grid for Broyden might be to small

 eigenvalues of (default mixing * dielectric matrix)
  average eigenvalue GAMMA=   2.0295
  9.4079  6.1812  4.4572  2.9144  2.5484  2.3841  1.7840  1.3895  1.1341  1.0092
  1.0092  0.8074  0.8074  0.7713  0.7288  0.7012  0.6534  0.6534  0.6198  0.6274

 Free energy of the ion-electron system (eV)
  ---------------------------------------------------
  alpha Z        PSCENC =         0.23237360
  Ewald energy   TEWEN  =       200.34866435
  -Hartree energ DENC   =      -933.96884732
  -exchange      EXHF   =         0.00000000
  -V(xc)+E(xc)   XCENC  =        55.42369643
  PAW double counting   =       569.76026895     -573.35774622
  entropy T*S    EENTRO =        -0.00000000
  eigenvalues    EBANDS =      -192.81922690
  atomic energy  EATOM  =       864.52639207
  Solvation  Ediel_sol  =         0.00000000
  ---------------------------------------------------
  free energy    TOTEN  =        -9.85442505 eV

  energy without entropy =       -9.85442505  energy(sigma->0) =       -9.85442505


--------------------------------------------------------------------------------------------------------




--------------------------------------- Iteration      1(  26)  ---------------------------------------


    POTLOK:  cpu time    0.5643: real time    0.5664
    SETDIJ:  cpu time    0.2803: real time    0.2915
     EDDAV:  cpu time    1.1841: real time    1.1936
       DOS:  cpu time    0.0001: real time    0.0001
    CHARGE:  cpu time    0.4934: real time    0.4950
    MIXING:  cpu time    0.0254: real time    0.0255
    --------------------------------------------
      LOOP:  cpu time    2.5477: real time    2.5721

 eigenvalue-minimisations  :   216
 total energy-change (2. order) :-0.1289053E-06  (-0.2912892E-10)
 number of electron      12.0000000 magnetization       2.0000000
 augmentation part        1.1329794 magnetization       0.4912043

 Broyden mixing:
  rms(total) = 0.14600E-04    rms(broyden)= 0.73581E-06
  rms(prec ) = 0.12128E-05
  weight for this iteration     100.00
  WARNING: grid for Broyden might be to small

 eigenvalues of (default mixing * dielectric matrix)
  average eigenvalue GAMMA=   2.0406
  9.5341  6.5996  4.6279  2.9948  2.5619  2.3955  1.7854  1.5802  1.4176  1.0347
  1.0347  1.0014  0.8076  0.7754  0.7607  0.7112  0.6830  0.6517  0.6517  0.6270
  0.6167

 Free energy of the ion-electron system (eV)
  ---------------------------------------------------
  alpha Z        PSCENC =         0.23237360
  Ewald energy   TEWEN  =       200.34866435
  -Hartree energ DENC   =      -933.96883980
  -exchange      EXHF   =         0.00000000
  -V(xc)+E(xc)   XCENC  =        55.42369653
  PAW double counting   =       569.76025545     -573.35773267
  entropy T*S    EENTRO =        -0.00000000
  eigenvalues    EBANDS =      -192.81923470
  atomic energy  EATOM  =       864.52639207
  Solvation  Ediel_sol  =         0.00000000
  ---------------------------------------------------
  free energy    TOTEN  =        -9.85442518 eV

  energy without entropy =       -9.85442518  energy(sigma->0) =       -9.85442518


--------------------------------------------------------------------------------------------------------




--------------------------------------- Iteration      1(  27)  ---------------------------------------


    POTLOK:  cpu time    0.5667: real time    0.5682
    SETDIJ:  cpu time    0.2866: real time    0.2873
     EDDAV:  cpu time    1.0852: real time    1.0878
       DOS:  cpu time    0.0001: real time    0.0001
    CHARGE:  cpu time    0.5003: real time    0.5026
    MIXING:  cpu time    0.0259: real time    0.0260
    --------------------------------------------
      LOOP:  cpu time    2.4649: real time    2.4720

 eigenvalue-minimisations  :   192
 total energy-change (2. order) :-0.1014911E-06  (-0.2596012E-10)
 number of electron      12.0000000 magnetization       2.0000000
 augmentation part        1.1329794 magnetization       0.4912044

 Broyden mixing:
  rms(total) = 0.14584E-04    rms(broyden)= 0.29195E-06
  rms(prec ) = 0.47526E-06
  weight for this iteration     100.00
  WARNING: grid for Broyden might be to small

 eigenvalues of (default mixing * dielectric matrix)
  average eigenvalue GAMMA=   2.1057
  9.7033  7.2580  4.8545  3.4027  2.7123  2.5253  2.3530  1.7859  1.3983  1.1670
  1.0122  1.0122  0.8470  0.8470  0.7786  0.7475  0.7101  0.6723  0.6548  0.6428
  0.6262  0.6134

 Free energy of the ion-electron system (eV)
  ---------------------------------------------------
  alpha Z        PSCENC =         0.23237360
  Ewald energy   TEWEN  =       200.34866435
  -Hartree energ DENC   =      -933.96881335
  -exchange      EXHF   =         0.00000000
  -V(xc)+E(xc)   XCENC  =        55.42369556
  PAW double counting   =       569.76017657     -573.35765368
  entropy T*S    EENTRO =        -0.00000000
  eigenvalues    EBANDS =      -192.81926039
  atomic energy  EATOM  =       864.52639207
  Solvation  Ediel_sol  =         0.00000000
  ---------------------------------------------------
  free energy    TOTEN  =        -9.85442528 eV

  energy without entropy =       -9.85442528  energy(sigma->0) =       -9.85442528


--------------------------------------------------------------------------------------------------------




--------------------------------------- Iteration      1(  28)  ---------------------------------------


    POTLOK:  cpu time    0.5629: real time    0.5647
    SETDIJ:  cpu time    0.2873: real time    0.2880
     EDDAV:  cpu time    1.1661: real time    1.1689
       DOS:  cpu time    0.0001: real time    0.0001
    CHARGE:  cpu time    0.4978: real time    0.4990
    MIXING:  cpu time    0.0257: real time    0.0258
    --------------------------------------------
      LOOP:  cpu time    2.5399: real time    2.5464

 eigenvalue-minimisations  :   212
 total energy-change (2. order) :-0.1650938E-07  (-0.5155432E-11)
 number of electron      12.0000000 magnetization       2.0000000
 augmentation part        1.1329794 magnetization       0.4912044

 Broyden mixing:
  rms(total) = 0.14582E-04    rms(broyden)= 0.14459E-06
  rms(prec ) = 0.24248E-06
  weight for this iteration     100.00
  WARNING: grid for Broyden might be to small

 eigenvalues of (default mixing * dielectric matrix)
  average eigenvalue GAMMA=   2.1021
  9.8035  7.5741  4.9836  3.7187  2.8224  2.5381  2.3918  1.7844  1.3943  1.2493
  1.0340  1.0080  1.0080  0.8091  0.8091  0.7700  0.7345  0.7079  0.6763  0.6471
  0.6471  0.6245  0.6123

 Free energy of the ion-electron system (eV)
  ---------------------------------------------------
  alpha Z        PSCENC =         0.23237360
  Ewald energy   TEWEN  =       200.34866435
  -Hartree energ DENC   =      -933.96880014
  -exchange      EXHF   =         0.00000000
  -V(xc)+E(xc)   XCENC  =        55.42369500
  PAW double counting   =       569.76015790     -573.35763484
  entropy T*S    EENTRO =        -0.00000000
  eigenvalues    EBANDS =      -192.81927322
  atomic energy  EATOM  =       864.52639207
  Solvation  Ediel_sol  =         0.00000000
  ---------------------------------------------------
  free energy    TOTEN  =        -9.85442529 eV

  energy without entropy =       -9.85442529  energy(sigma->0) =       -9.85442529


--------------------------------------------------------------------------------------------------------




--------------------------------------- Iteration      1(  29)  ---------------------------------------


    POTLOK:  cpu time    0.5636: real time    0.5651
    SETDIJ:  cpu time    0.2871: real time    0.2878
     EDDAV:  cpu time    1.2155: real time    1.2184
       DOS:  cpu time    0.0001: real time    0.0001
    --------------------------------------------
      LOOP:  cpu time    2.0663: real time    2.0714

 eigenvalue-minimisations  :   224
 total energy-change (2. order) :-0.2842853E-08  (-0.1896927E-11)
 number of electron      12.0000000 magnetization       2.0000000
 augmentation part        1.1329794 magnetization       0.4912044

 Free energy of the ion-electron system (eV)
  ---------------------------------------------------
  alpha Z        PSCENC =         0.23237360
  Ewald energy   TEWEN  =       200.34866435
  -Hartree energ DENC   =      -933.96879766
  -exchange      EXHF   =         0.00000000
  -V(xc)+E(xc)   XCENC  =        55.42369498
  PAW double counting   =       569.76017247     -573.35764943
  entropy T*S    EENTRO =        -0.00000000
  eigenvalues    EBANDS =      -192.81927566
  atomic energy  EATOM  =       864.52639207
  Solvation  Ediel_sol  =         0.00000000
  ---------------------------------------------------
  free energy    TOTEN  =        -9.85442530 eV

  energy without entropy =       -9.85442530  energy(sigma->0) =       -9.85442530


--------------------------------------------------------------------------------------------------------




 average (electrostatic) potential at core
  the test charge radii are     0.7215
  (the norm of the test charge is              1.0000)
       1 -83.9171       2 -83.9170
 
 
 
 E-fermi :  -6.6458     XC(G=0):  -0.2804     alpha+bet : -0.0626


 spin component 1

 k-point     1 :       0.0000    0.0000    0.0000
  band No.  band energies     occupation 
      1     -32.5443      1.00000
      2     -20.6832      1.00000
      3     -13.4426      1.00000
      4     -13.2900      1.00000
      5     -13.2898      1.00000
      6      -6.9766      1.00000
      7      -6.9762      1.00000
      8      -0.2561      0.00000
      9       0.3778      0.00000
     10       0.4313      0.00000
     11       0.7463      0.00000
     12       0.7597      0.00000

 k-point     2 :       0.5000    0.0000    0.0000
  band No.  band energies     occupation 
      1     -32.5444      1.00000
      2     -20.6832      1.00000
      3     -13.4428      1.00000
      4     -13.2902      1.00000
      5     -13.2900      1.00000
      6      -6.9770      1.00000
      7      -6.9765      1.00000
      8      -0.1241      0.00000
      9       0.1758      0.00000
     10       0.4663      0.00000
     11       0.5880      0.00000
     12       0.6113      0.00000

 k-point     3 :       0.0000    0.5000    0.0000
  band No.  band energies     occupation 
      1     -32.5444      1.00000
      2     -20.6832      1.00000
      3     -13.4428      1.00000
      4     -13.2903      1.00000
      5     -13.2901      1.00000
      6      -6.9767      1.00000
      7      -6.9764      1.00000
      8      -0.1241      0.00000
      9       0.1784      0.00000
     10       0.4588      0.00000
     11       0.5882      0.00000
     12       0.6148      0.00000

 k-point     4 :       0.5000    0.5000    0.0000
  band No.  band energies     occupation 
      1     -32.5444      1.00000
      2     -20.6832      1.00000
      3     -13.4427      1.00000
      4     -13.2903      1.00000
      5     -13.2902      1.00000
      6      -6.9766      1.00000
      7      -6.9763      1.00000
      8      -0.1244      0.00000
      9       0.1736      0.00000
     10       0.4757      0.00000
     11       0.5868      0.00000
     12       0.6060      0.00000

 spin component 2

 k-point     1 :       0.0000    0.0000    0.0000
  band No.  band energies     occupation 
      1     -31.3184      1.00000
      2     -18.8867      1.00000
      3     -12.5157      1.00000
      4     -11.4473      1.00000
      5     -11.4470      1.00000
      6      -4.7043      0.00000
      7      -4.7040      0.00000
      8      -0.1633      0.00000
      9       0.5030      0.00000
     10       0.5176      0.00000
     11       0.8442      0.00000
     12       0.8535      0.00000

 k-point     2 :       0.5000    0.0000    0.0000
  band No.  band energies     occupation 
      1     -31.3185      1.00000
      2     -18.8868      1.00000
      3     -12.5158      1.00000
      4     -11.4474      1.00000
      5     -11.4472      1.00000
      6      -4.7046      0.00000
      7      -4.7042      0.00000
      8       0.0011      0.00000
      9       0.2192      0.00000
     10       0.6444      0.00000
     11       0.6457      0.00000
     12       0.6879      0.00000

 k-point     3 :       0.0000    0.5000    0.0000
  band No.  band energies     occupation 
      1     -31.3185      1.00000
      2     -18.8868      1.00000
      3     -12.5159      1.00000
      4     -11.4474      1.00000
      5     -11.4473      1.00000
      6      -4.7044      0.00000
      7      -4.7041      0.00000
      8       0.0014      0.00000
      9       0.2201      0.00000
     10       0.6387      0.00000
     11       0.6440      0.00000
     12       0.6926      0.00000

 k-point     4 :       0.5000    0.5000    0.0000
  band No.  band energies     occupation 
      1     -31.3186      1.00000
      2     -18.8868      1.00000
      3     -12.5158      1.00000
      4     -11.4474      1.00000
      5     -11.4474      1.00000
      6      -4.7043      0.00000
      7      -4.7041      0.00000
      8       0.0005      0.00000
      9       0.2191      0.00000
     10       0.6441      0.00000
     11       0.6581      0.00000
     12       0.6780      0.00000


--------------------------------------------------------------------------------------------------------


 soft charge-density along one line, spin component           1
         0         1         2         3         4         5         6         7         8         9
 total charge-density along one line
 
 soft charge-density along one line, spin component           2
         0         1         2         3         4         5         6         7         8         9
 total charge-density along one line
 
 pseudopotential strength for first ion, spin component:           1
 14.569  -0.655  -0.011   0.123   0.036   0.001  -0.006  -0.002
 -0.655   0.144   0.001  -0.016  -0.005  -0.000   0.003   0.001
 -0.011   0.001 -11.440   0.000   0.000   0.536   0.001   0.000
  0.123  -0.016   0.000 -11.443  -0.001   0.001   0.521  -0.004
  0.036  -0.005   0.000  -0.001 -11.441   0.000  -0.004   0.535
  0.001  -0.000   0.536   0.001   0.000   0.049  -0.000  -0.000
[...]
  average eigenvalue GAMMA=   2.1772
  9.3506  6.3879  4.3339  3.1527  2.6328  2.2500  1.8771  1.4512  1.0054  1.0054
  0.8858  0.7812  0.7812  0.7011  0.6953  0.6417  0.6347  0.6209

 Free energy of the ion-electron system (eV)
  ---------------------------------------------------
  alpha Z        PSCENC =         0.23237360
  Ewald energy   TEWEN  =       200.67410848
  -Hartree energ DENC   =      -934.25260747
  -exchange      EXHF   =         0.00000000
  -V(xc)+E(xc)   XCENC  =        55.43075108
  PAW double counting   =       570.06649201     -573.66536335
  entropy T*S    EENTRO =        -0.00000000
  eigenvalues    EBANDS =      -192.86676360
  atomic energy  EATOM  =       864.52639207
  Solvation  Ediel_sol  =         0.00000000
  ---------------------------------------------------
  free energy    TOTEN  =        -9.85461718 eV

  energy without entropy =       -9.85461718  energy(sigma->0) =       -9.85461718


--------------------------------------------------------------------------------------------------------




--------------------------------------- Iteration      7(  20)  ---------------------------------------


    POTLOK:  cpu time    0.5634: real time    0.5649
    SETDIJ:  cpu time    0.2869: real time    0.2877
     EDDAV:  cpu time    1.2804: real time    1.2835
       DOS:  cpu time    0.0001: real time    0.0001
    CHARGE:  cpu time    0.4920: real time    0.4935
    MIXING:  cpu time    0.0220: real time    0.0221
    --------------------------------------------
      LOOP:  cpu time    2.6449: real time    2.6517

 eigenvalue-minimisations  :   240
 total energy-change (2. order) :-0.1222475E-07  (-0.5276890E-11)
 number of electron      12.0000000 magnetization       2.0000000
 augmentation part        1.1335799 magnetization       0.4911905

 Broyden mixing:
  rms(total) = 0.14652E-04    rms(broyden)= 0.15973E-06
  rms(prec ) = 0.24751E-06
  weight for this iteration     100.00
  WARNING: grid for Broyden might be to small

 eigenvalues of (default mixing * dielectric matrix)
  average eigenvalue GAMMA=   2.2458
  9.6762  7.2687  4.7416  3.4823  2.8285  2.5858  1.8369  1.4829  1.1020  1.1020
  0.9658  0.7983  0.7983  0.7374  0.7048  0.6696  0.6397  0.6310  0.6185

 Free energy of the ion-electron system (eV)
  ---------------------------------------------------
  alpha Z        PSCENC =         0.23237360
  Ewald energy   TEWEN  =       200.67410848
  -Hartree energ DENC   =      -934.25260666
  -exchange      EXHF   =         0.00000000
  -V(xc)+E(xc)   XCENC  =        55.43075106
  PAW double counting   =       570.06649475     -573.66536615
  entropy T*S    EENTRO =        -0.00000000
  eigenvalues    EBANDS =      -192.86676434
  atomic energy  EATOM  =       864.52639207
  Solvation  Ediel_sol  =         0.00000000
  ---------------------------------------------------
  free energy    TOTEN  =        -9.85461719 eV

  energy without entropy =       -9.85461719  energy(sigma->0) =       -9.85461719


--------------------------------------------------------------------------------------------------------




--------------------------------------- Iteration      7(  21)  ---------------------------------------


    POTLOK:  cpu time    0.5632: real time    0.5647
    SETDIJ:  cpu time    0.2871: real time    0.2877
     EDDAV:  cpu time    1.3137: real time    1.3168
       DOS:  cpu time    0.0001: real time    0.0001
    --------------------------------------------
      LOOP:  cpu time    2.1640: real time    2.1693

 eigenvalue-minimisations  :   248
 total energy-change (2. order) :-0.2338084E-08  (-0.2028377E-11)
 number of electron      12.0000000 magnetization       2.0000000
 augmentation part        1.1335799 magnetization       0.4911905

 Free energy of the ion-electron system (eV)
  ---------------------------------------------------
  alpha Z        PSCENC =         0.23237360
  Ewald energy   TEWEN  =       200.67410848
  -Hartree energ DENC   =      -934.25260538
  -exchange      EXHF   =         0.00000000
  -V(xc)+E(xc)   XCENC  =        55.43075098
  PAW double counting   =       570.06649123     -573.66536262
  entropy T*S    EENTRO =        -0.00000000
  eigenvalues    EBANDS =      -192.86676555
  atomic energy  EATOM  =       864.52639207
  Solvation  Ediel_sol  =         0.00000000
  ---------------------------------------------------
  free energy    TOTEN  =        -9.85461720 eV

  energy without entropy =       -9.85461720  energy(sigma->0) =       -9.85461720


--------------------------------------------------------------------------------------------------------




 average (electrostatic) potential at core
  the test charge radii are     0.7215
  (the norm of the test charge is              1.0000)
       1 -83.9382       2 -83.8980
 
 
 
 E-fermi :  -6.6502     XC(G=0):  -0.2805     alpha+bet : -0.0626


 spin component 1

 k-point     1 :       0.0000    0.0000    0.0000
  band No.  band energies     occupation 
      1     -32.5642      1.00000
      2     -20.6754      1.00000
      3     -13.4448      1.00000
      4     -13.2983      1.00000
      5     -13.2981      1.00000
      6      -6.9693      1.00000
      7      -6.9689      1.00000
      8      -0.2561      0.00000
      9       0.3795      0.00000
     10       0.4311      0.00000
     11       0.7462      0.00000
     12       0.7594      0.00000

 k-point     2 :       0.5000    0.0000    0.0000
  band No.  band energies     occupation 
      1     -32.5642      1.00000
      2     -20.6755      1.00000
      3     -13.4450      1.00000
      4     -13.2985      1.00000
      5     -13.2983      1.00000
      6      -6.9697      1.00000
      7      -6.9692      1.00000
      8      -0.1242      0.00000
      9       0.1758      0.00000
     10       0.4686      0.00000
     11       0.5878      0.00000
     12       0.6112      0.00000

 k-point     3 :       0.0000    0.5000    0.0000
  band No.  band energies     occupation 
      1     -32.5643      1.00000
      2     -20.6754      1.00000
      3     -13.4450      1.00000
      4     -13.2986      1.00000
      5     -13.2984      1.00000
      6      -6.9694      1.00000
      7      -6.9691      1.00000
      8      -0.1242      0.00000
      9       0.1783      0.00000
     10       0.4612      0.00000
     11       0.5880      0.00000
     12       0.6147      0.00000

 k-point     4 :       0.5000    0.5000    0.0000
  band No.  band energies     occupation 
      1     -32.5643      1.00000
      2     -20.6754      1.00000
      3     -13.4450      1.00000
      4     -13.2985      1.00000
      5     -13.2984      1.00000
      6      -6.9693      1.00000
      7      -6.9690      1.00000
      8      -0.1245      0.00000
      9       0.1736      0.00000
     10       0.4780      0.00000
     11       0.5867      0.00000
     12       0.6059      0.00000

 spin component 2

 k-point     1 :       0.0000    0.0000    0.0000
  band No.  band energies     occupation 
      1     -31.3390      1.00000
      2     -18.8791      1.00000
      3     -12.5173      1.00000
      4     -11.4556      1.00000
      5     -11.4554      1.00000
      6      -4.6968      0.00000
      7      -4.6965      0.00000
      8      -0.1632      0.00000
      9       0.5028      0.00000
     10       0.5184      0.00000
     11       0.8443      0.00000
     12       0.8535      0.00000

 k-point     2 :       0.5000    0.0000    0.0000
  band No.  band energies     occupation 
      1     -31.3391      1.00000
      2     -18.8792      1.00000
      3     -12.5174      1.00000
      4     -11.4557      1.00000
      5     -11.4556      1.00000
      6      -4.6972      0.00000
      7      -4.6967      0.00000
      8       0.0013      0.00000
      9       0.2192      0.00000
     10       0.6439      0.00000
     11       0.6471      0.00000
     12       0.6883      0.00000

 k-point     3 :       0.0000    0.5000    0.0000
  band No.  band energies     occupation 
      1     -31.3391      1.00000
      2     -18.8792      1.00000
      3     -12.5174      1.00000
      4     -11.4558      1.00000
      5     -11.4556      1.00000
      6      -4.6969      0.00000
      7      -4.6967      0.00000
      8       0.0015      0.00000
      9       0.2201      0.00000
     10       0.6396      0.00000
     11       0.6440      0.00000
     12       0.6929      0.00000

 k-point     4 :       0.5000    0.5000    0.0000
  band No.  band energies     occupation 
      1     -31.3391      1.00000
      2     -18.8791      1.00000
      3     -12.5174      1.00000
      4     -11.4558      1.00000
      5     -11.4557      1.00000
      6      -4.6968      0.00000
      7      -4.6966      0.00000
      8       0.0007      0.00000
      9       0.2191      0.00000
     10       0.6439      0.00000
     11       0.6592      0.00000
     12       0.6783      0.00000


--------------------------------------------------------------------------------------------------------


 soft charge-density along one line, spin component           1
         0         1         2         3         4         5         6         7         8         9
 total charge-density along one line
 
 soft charge-density along one line, spin component           2
         0         1         2         3         4         5         6         7         8         9
 total charge-density along one line
 
 pseudopotential strength for first ion, spin component:           1
 14.572  -0.655  -0.011   0.123   0.036   0.001  -0.006  -0.002
 -0.655   0.144   0.001  -0.016  -0.005  -0.000   0.003   0.001
 -0.011   0.001 -11.444   0.000   0.000   0.537   0.001   0.000
  0.123  -0.016   0.000 -11.447  -0.001   0.001   0.522  -0.004
  0.036  -0.005   0.000  -0.001 -11.445   0.000  -0.004   0.536
  0.001  -0.000   0.537   0.001   0.000   0.049  -0.000  -0.000
 -0.006   0.003   0.001   0.522  -0.004  -0.000   0.053   0.001
 -0.002   0.001   0.000  -0.004   0.536  -0.000   0.001   0.049
 pseudopotential strength for first ion, spin component:           2
 14.045  -0.573  -0.011   0.122   0.036   0.001  -0.006  -0.002
 -0.573   0.132   0.001  -0.015  -0.004  -0.000   0.003   0.001
 -0.011   0.001 -10.839   0.031   0.009   0.385  -0.007  -0.002
  0.122  -0.015   0.031 -11.204  -0.106  -0.007   0.462   0.022
  0.036  -0.004   0.009  -0.106 -10.867  -0.002   0.022   0.390
  0.001  -0.000   0.385  -0.007  -0.002   0.098   0.002   0.001
 -0.006   0.003  -0.007   0.462   0.022   0.002   0.075  -0.007
 -0.002   0.001  -0.002   0.022   0.390   0.001  -0.007   0.096
 total augmentation occupancy for first ion, spin component:           1
  1.958   0.102  -0.016   0.187   0.054   0.003  -0.034  -0.010
  0.102   0.058   0.015  -0.179  -0.052   0.006  -0.064  -0.019
 -0.016   0.015   1.526   0.015   0.004   0.056  -0.016  -0.005
  0.187  -0.179   0.015   1.351  -0.051  -0.016   0.247   0.055
  0.054  -0.052   0.004  -0.051   1.513  -0.005   0.055   0.071
  0.003   0.006   0.056  -0.016  -0.005   0.016  -0.005  -0.002
 -0.034  -0.064  -0.016   0.247   0.055  -0.005   0.077   0.018
 -0.010  -0.019  -0.005   0.055   0.071  -0.002   0.018   0.021
 total augmentation occupancy for first ion, spin component:           2
  0.024  -0.026   0.000  -0.005  -0.001  -0.000   0.005   0.002
 -0.026  -0.004  -0.000   0.002   0.000  -0.000   0.002   0.001
  0.000  -0.000   0.570   0.045   0.013  -0.063  -0.004  -0.001
 -0.005   0.002   0.045   0.047  -0.152  -0.004  -0.013   0.015
 -0.001   0.000   0.013  -0.152   0.530  -0.001   0.015  -0.059
 -0.000  -0.000  -0.063  -0.004  -0.001   0.001   0.000   0.000
  0.005   0.002  -0.004  -0.013   0.015   0.000  -0.003  -0.001
  0.002   0.001  -0.001   0.015  -0.059   0.000  -0.001   0.001


------------------------ aborting loop because EDIFF is reached ----------------------------------------


 


 total charge     
 
# of ion       s       p       d       tot
------------------------------------------
    1        1.638   3.292   0.000   4.930
    2        1.638   3.282   0.000   4.920
--------------------------------------------------
tot          3.275   6.575   0.000   9.850
 


 magnetization (x)
 
# of ion       s       p       d       tot
------------------------------------------
    1        0.010   0.801   0.000   0.811
    2        0.010   0.807   0.000   0.817
--------------------------------------------------
tot          0.020   1.609   0.000   1.629
 
    CHARGE:  cpu time    0.4974: real time    0.4986
    FORLOC:  cpu time    0.0084: real time    0.0085
    FORNL :  cpu time    2.0668: real time    2.0731
    STRESS:  cpu time    6.4882: real time    6.5043
    FORHAR:  cpu time    0.0693: real time    0.0695
    MIXING:  cpu time    0.0222: real time    0.0222
    OFIELD:  cpu time    0.0000: real time    0.0000

  FORCE on cell =-STRESS in cart. coord.  units (eV):
  Direction    XX          YY          ZZ          XY          YZ          ZX
  --------------------------------------------------------------------------------------
  Alpha Z     0.23237     0.23237     0.23237
  Ewald     -30.40279   -59.59077   290.66767    -9.52409   -32.90357   110.62315
  Hartree   271.91180   258.38223   403.95857    -4.41468   -15.18335    51.04700
  E(xc)     -58.97678   -59.05740   -58.00154    -0.02631    -0.09123     0.30672
  Local    -421.42917  -381.80270  -837.15154    12.93010    44.58837  -149.90787
  n-local   -44.49647   -44.25517   -47.41795     0.07847     0.27354    -0.91757
  augment    12.75123    12.92889    10.60162     0.05802     0.20100    -0.67583
  Kinetic   268.84073   271.56074   235.92834     0.88757     3.07827   -10.34936
  Fock        0.00000     0.00000     0.00000     0.00000     0.00000     0.00000
  -------------------------------------------------------------------------------------
  Total      -1.56907    -1.60180    -1.18244    -0.01091    -0.03697     0.12625
  in kB      -1.05118    -1.07311    -0.79216    -0.00731    -0.02477     0.08458
  external pressure =       -0.97 kB  Pullay stress =        0.00 kB


 VOLUME and BASIS-vectors are now :
 -----------------------------------------------------------------------------
  energy-cutoff  :      400.00
  volume of cell :     2391.54
      direct lattice vectors                 reciprocal lattice vectors
    13.675000191  0.000000000  0.000000000     0.073126142  0.042219398  0.000000000
    -6.837500095 11.842897562  0.000000000     0.000000000  0.084438795  0.000000000
     0.000000000  0.000000000 14.767000198     0.000000000  0.000000000  0.067718561

  length of vectors
    13.675000191 13.675000191 14.767000198     0.084438795  0.084438795  0.067718561


 FORCES acting on ions
    electron-ion (+dipol)            ewald-force                    non-local-force                 convergence-correction
 -----------------------------------------------------------------------------------------------
   -.793E+02 0.236E+02 -.276E+03   0.937E+02 -.279E+02 0.326E+03   -.144E+02 0.427E+01 -.498E+02   0.845E-07 0.502E-06 -.141E-06
   0.794E+02 -.236E+02 0.275E+03   -.937E+02 0.279E+02 -.326E+03   0.144E+02 -.427E+01 0.498E+02   0.197E-06 0.312E-07 0.686E-06
 -----------------------------------------------------------------------------------------------
   0.155E+00 -.461E-01 -.104E+01   0.000E+00 0.000E+00 0.000E+00   0.000E+00 0.000E+00 0.000E+00   0.282E-06 0.533E-06 0.544E-06
 
 
 POSITION                                       TOTAL-FORCE (eV/Angst)
 -----------------------------------------------------------------------------------
      7.63343      6.09232     10.06274         0.018230     -0.005665      0.066607
      7.29287      6.19361      8.88167        -0.018230      0.005665     -0.066607
 -----------------------------------------------------------------------------------
    total drift:                                0.154993     -0.046096     -1.039534


--------------------------------------------------------------------------------------------------------



  FREE ENERGIE OF THE ION-ELECTRON SYSTEM (eV)
  ---------------------------------------------------
  free  energy   TOTEN  =        -9.85461720 eV

  energy  without entropy=       -9.85461720  energy(sigma->0) =       -9.85461720
 
 d Force =-0.3304141E-04[-0.723E-04, 0.619E-05]  d Energy =-0.7120928E-04 0.382E-04
 d Force =-0.3533944E+00[-0.354E+00,-0.353E+00]  d Ewald  =-0.3533944E+00 0.343E-07


--------------------------------------------------------------------------------------------------------


    POTLOK:  cpu time    0.8506: real time    0.8526


--------------------------------------------------------------------------------------------------------


DOING DYMAT, READING DISPLACECAR
FOR   1 OUT OF   1
 HIPREC POSITION (A)    
 -----------------------------------------------------------------------------------
 DYNMAT: Loop at J=           1
 DYNMAT: Before DIRKAR
 DYNMAT: After DIRKAR
       7.633425892111028       6.092315513378550      10.062739173334538
 DYNMAT: Loop at J=           2
 DYNMAT: Before DIRKAR
 DYNMAT: After DIRKAR
       7.292868808648998       6.193610267705258       8.881672615571055
 HIPREC TOTAL-FORCE (eV/A)    
 -----------------------------------------------------------------------------------
       0.018230418646607      -0.005665009019165       0.066607388184010
      -0.018230418646607       0.005665009019165      -0.066607388184010
DYMAT: ------------------------------
DYMAT: DEGREE OF FREEDOM   1  1  1
DYMAT: ------------------------------
DYMAT: DEGREE OF FREEDOM   1  2  2
DYMAT: ------------------------------
DYMAT: DEGREE OF FREEDOM   1  3  3
DYMAT: ------------------------------
DYMAT: DEGREE OF FREEDOM   2  1  4
DYMAT: ------------------------------
DYMAT: DEGREE OF FREEDOM   2  2  5
DYMAT: ------------------------------
DYMAT: DEGREE OF FREEDOM   2  3  6
DYMAT: LEAVING
 stress matrix after NEB project (eV)
     -1.56907     -0.01091      0.12625
     -0.01091     -1.60180     -0.03697
      0.12625     -0.03697     -1.18244
  FORCES: max atom, RMS     0.069289    0.069289
  FORCE total and by dimension    0.097990    0.066607
  Stress total and by dimension    2.541808    1.601805


--------------------------------------------------------------------------------------------------------


     LOOP+:  cpu time   64.5412: real time   64.7460
    4ORBIT:  cpu time    0.0000: real time    0.0000
 


 total charge     
 
# of ion       s       p       d       tot
------------------------------------------
    1        1.638   3.292   0.000   4.930
    2        1.638   3.282   0.000   4.920
--------------------------------------------------
tot          3.275   6.575   0.000   9.850
 


 magnetization (x)
 
# of ion       s       p       d       tot
------------------------------------------
    1        0.010   0.801   0.000   0.811
    2        0.010   0.807   0.000   0.817
--------------------------------------------------
tot          0.020   1.609   0.000   1.629
 

 total amount of memory used by VASP MPI-rank0   144579. kBytes
=======================================================================

   base      :      30000. kBytes
   nonlr-proj:        333. kBytes
   fftplans  :      63998. kBytes
   grid      :      46065. kBytes
   one-center:          6. kBytes
   wavefun   :       4177. kBytes
 
  
  
 General timing and accounting informations for this job:
 ========================================================
  
                  Total CPU time used (sec):      462.156
                            User time (sec):      442.021
                          System time (sec):       20.134
                         Elapsed time (sec):      463.672
  
                   Maximum memory used (kb):      248816.
                   Average memory used (kb):           0.
  
                          Minor page faults:       122838
                          Major page faults:           11
                 Voluntary context switches:          883
