 vasp.5.4.4.18Apr17-6-g9f103f2a35 (build Dec 31 2018 11:41:54) complex          
  
 executed on             LinuxIFC date 2022.04.26  16:30:32
 running on   16 total cores
 distrk:  each k-point on   16 cores,    1 groups
 distr:  one band on NCORES_PER_BAND=   4 cores,    4 groups


--------------------------------------------------------------------------------------------------------


 INCAR:
 POTCAR:   PAW_PBE O 08Apr2002                    
 POTCAR:   PAW_PBE Si 05Jan2001                   
 POTCAR:   PAW_PBE Al 04Jan2001                   
 POTCAR:   PAW_PBE Ag 06Sep2000                   
 POTCAR:   PAW_PBE C 08Apr2002                    
 POTCAR:   PAW_PBE O 08Apr2002                    
   VRHFIN =O: s2p4                                                              
   LEXCH  = PE                                                                  
   EATOM  =   432.3788 eV,   31.7789 Ry                                         
                                                                                
   TITEL  = PAW_PBE O 08Apr2002                                                 
   LULTRA =        F    use ultrasoft PP ?                                      
   IUNSCR =        0    unscreen: 0-lin 1-nonlin 2-no                           
   RPACOR =     .000    partial core radius                                     
   POMASS =   16.000; ZVAL   =    6.000    mass and valenz                      
   RCORE  =    1.520    outmost cutoff radius                                   
   RWIGS  =    1.550; RWIGS  =     .820    wigner-seitz radius (au A)           
   ENMAX  =  400.000; ENMIN  =  300.000 eV                                      
   ICORE  =        2    local potential                                         
   LCOR   =        T    correct aug charges                                     
   LPAW   =        T    paw PP                                                  
   EAUG   =  605.392                                                            
   DEXC   =     .000                                                            
   RMAX   =    2.264    core radius for proj-oper                               
   RAUG   =    1.300    factor for augmentation sphere                          
   RDEP   =    1.550    radius for radial grids                                 
   QCUT   =   -5.520; QGAM   =   11.041    optimization parameters              
                                                                                
   Description                                                                  
     l     E      TYP  RCUT    TYP  RCUT                                        
     0   .000     23  1.200                                                     
     0  -.700     23  1.200                                                     
     1   .000     23  1.520                                                     
     1   .600     23  1.520                                                     
     2   .000      7  1.500                                                     
  local pseudopotential read in
  atomic valenz-charges read in
  non local Contribution for L=           0  read in
    real space projection operators read in
  non local Contribution for L=           0  read in
    real space projection operators read in
  non local Contribution for L=           1  read in
    real space projection operators read in
  non local Contribution for L=           1  read in
    real space projection operators read in
    PAW grid and wavefunctions read in
 
   number of l-projection  operators is LMAX  =           4
   number of lm-projection operators is LMMAX =           8
 
 POTCAR:   PAW_PBE Si 05Jan2001                   
   VRHFIN =Si: s2p2                                                             
   LEXCH  = PE                                                                  
   EATOM  =   103.0669 eV,    7.5752 Ry                                         
                                                                                
   TITEL  = PAW_PBE Si 05Jan2001                                                
   LULTRA =        F    use ultrasoft PP ?                                      
   IUNSCR =        1    unscreen: 0-lin 1-nonlin 2-no                           
   RPACOR =    1.500    partial core radius                                     
   POMASS =   28.085; ZVAL   =    4.000    mass and valenz                      
   RCORE  =    1.900    outmost cutoff radius                                   
   RWIGS  =    2.480; RWIGS  =    1.312    wigner-seitz radius (au A)           
   ENMAX  =  245.345; ENMIN  =  184.009 eV                                      
   ICORE  =        2    local potential                                         
   LCOR   =        T    correct aug charges                                     
   LPAW   =        T    paw PP                                                  
   EAUG   =  322.069                                                            
   DEXC   =    -.007                                                            
   RMAX   =    2.944    core radius for proj-oper                               
   RAUG   =    1.300    factor for augmentation sphere                          
   RDEP   =    1.993    radius for radial grids                                 
   QCUT   =   -4.246; QGAM   =    8.493    optimization parameters              
                                                                                
   Description                                                                  
     l     E      TYP  RCUT    TYP  RCUT                                        
     0   .000     23  1.900                                                     
     0   .000     23  1.900                                                     
     1   .000     23  1.900                                                     
     1   .000     23  1.900                                                     
     2   .000      7  1.900                                                     
  local pseudopotential read in
  partial core-charges read in
  atomic valenz-charges read in
  non local Contribution for L=           0  read in
    real space projection operators read in
  non local Contribution for L=           0  read in
    real space projection operators read in
  non local Contribution for L=           1  read in
    real space projection operators read in
  non local Contribution for L=           1  read in
    real space projection operators read in
    PAW grid and wavefunctions read in
 
   number of l-projection  operators is LMAX  =           4
   number of lm-projection operators is LMMAX =           8
 
 POTCAR:   PAW_PBE Al 04Jan2001                   
   VRHFIN =Al: s2p1                                                             
   LEXCH  = PE                                                                  
   EATOM  =    53.5387 eV,    3.9350 Ry                                         
                                                                                
   TITEL  = PAW_PBE Al 04Jan2001                                                
   LULTRA =        F    use ultrasoft PP ?                                      
   IUNSCR =        1    unscreen: 0-lin 1-nonlin 2-no                           
   RPACOR =    1.500    partial core radius                                     
   POMASS =   26.982; ZVAL   =    3.000    mass and valenz                      
   RCORE  =    1.900    outmost cutoff radius                                   
   RWIGS  =    2.650; RWIGS  =    1.402    wigner-seitz radius (au A)           
   ENMAX  =  240.300; ENMIN  =  180.225 eV                                      
   ICORE  =        2    local potential                                         
   LCOR   =        T    correct aug charges                                     
   LPAW   =        T    paw PP                                                  
   EAUG   =  291.052                                                            
   DEXC   =    -.041                                                            
   RMAX   =    2.974    core radius for proj-oper                               
   RAUG   =    1.300    factor for augmentation sphere                          
   RDEP   =    1.966    radius for radial grids                                 
   QCUT   =   -4.203; QGAM   =    8.405    optimization parameters              
                                                                                
   Description                                                                  
     l     E      TYP  RCUT    TYP  RCUT                                        
     0   .000     23  1.900                                                     
     0   .000     23  1.900                                                     
     1   .000     23  1.900                                                     
     1  1.000     23  1.900                                                     
     2   .000      7  1.900                                                     
  local pseudopotential read in
  partial core-charges read in
  atomic valenz-charges read in
  non local Contribution for L=           0  read in
    real space projection operators read in
  non local Contribution for L=           0  read in
    real space projection operators read in
  non local Contribution for L=           1  read in
    real space projection operators read in
  non local Contribution for L=           1  read in
    real space projection operators read in
    PAW grid and wavefunctions read in
 
   number of l-projection  operators is LMAX  =           4
   number of lm-projection operators is LMMAX =           8
 
 POTCAR:   PAW_PBE Ag 06Sep2000                   
   VRHFIN =Ag : s1 d10                                                          
   LEXCH  = PE                                                                  
   EATOM  =  1037.4134 eV,   76.2477 Ry                                         
                                                                                
   TITEL  = PAW_PBE Ag 06Sep2000                                                
   LULTRA =        F    use ultrasoft PP ?                                      
   IUNSCR =        1    unscreen: 0-lin 1-nonlin 2-no                           
   RPACOR =    2.000    partial core radius                                     
   POMASS =  107.868; ZVAL   =   11.000    mass and valenz                      
   RCORE  =    2.400    outmost cutoff radius                                   
   RWIGS  =    2.840; RWIGS  =    1.503    wigner-seitz radius (au A)           
   ENMAX  =  249.846; ENMIN  =  187.385 eV                                      
   RCLOC  =    1.962    cutoff for local pot                                    
   LCOR   =        T    correct aug charges                                     
   LPAW   =        T    paw PP                                                  
   EAUG   =  412.496                                                            
   DEXC   =    -.047                                                            
   RMAX   =    2.917    core radius for proj-oper                               
   RAUG   =    1.300    factor for augmentation sphere                          
   RDEP   =    2.416    radius for radial grids                                 
   QCUT   =   -4.285; QGAM   =    8.570    optimization parameters              
                                                                                
   Description                                                                  
     l     E      TYP  RCUT    TYP  RCUT                                        
     2   .000     23  2.400                                                     
     2   .000     23  2.400                                                     
     0   .000     23  2.400                                                     
     0   .000     23  2.400                                                     
     1  -.200     23  2.400                                                     
     1  1.500     23  2.400                                                     
     3   .000      7   .000                                                     
  local pseudopotential read in
  partial core-charges read in
  atomic valenz-charges read in
  non local Contribution for L=           2  read in
    real space projection operators read in
  non local Contribution for L=           2  read in
    real space projection operators read in
  non local Contribution for L=           0  read in
    real space projection operators read in
  non local Contribution for L=           0  read in
    real space projection operators read in
  non local Contribution for L=           1  read in
    real space projection operators read in
  non local Contribution for L=           1  read in
    real space projection operators read in
    PAW grid and wavefunctions read in
 
   number of l-projection  operators is LMAX  =           6
   number of lm-projection operators is LMMAX =          18
 
 POTCAR:   PAW_PBE C 08Apr2002                    
   VRHFIN =C: s2p2                                                              
   LEXCH  = PE                                                                  
   EATOM  =   147.1560 eV,   10.8157 Ry                                         
                                                                                
   TITEL  = PAW_PBE C 08Apr2002                                                 
   LULTRA =        F    use ultrasoft PP ?                                      
   IUNSCR =        0    unscreen: 0-lin 1-nonlin 2-no                           
   RPACOR =     .000    partial core radius                                     
   POMASS =   12.011; ZVAL   =    4.000    mass and valenz                      
   RCORE  =    1.500    outmost cutoff radius                                   
   RWIGS  =    1.630; RWIGS  =     .863    wigner-seitz radius (au A)           
   ENMAX  =  400.000; ENMIN  =  300.000 eV                                      
   ICORE  =        2    local potential                                         
   LCOR   =        T    correct aug charges                                     
   LPAW   =        T    paw PP                                                  
   EAUG   =  644.873                                                            
   DEXC   =     .000                                                            
   RMAX   =    2.266    core radius for proj-oper                               
   RAUG   =    1.300    factor for augmentation sphere                          
   RDEP   =    1.501    radius for radial grids                                 
   RDEPT  =    1.300    core radius for aug-charge                              
   QCUT   =   -5.516; QGAM   =   11.032    optimization parameters              
                                                                                
   Description                                                                  
     l     E      TYP  RCUT    TYP  RCUT                                        
     0   .000     23  1.200                                                     
     0   .000     23  1.200                                                     
     1   .000     23  1.500                                                     
     1  2.500     23  1.500                                                     
     2   .000      7  1.500                                                     
  local pseudopotential read in
  atomic valenz-charges read in
  non local Contribution for L=           0  read in
    real space projection operators read in
  non local Contribution for L=           0  read in
    real space projection operators read in
  non local Contribution for L=           1  read in
    real space projection operators read in
  non local Contribution for L=           1  read in
    real space projection operators read in
    PAW grid and wavefunctions read in
 
   number of l-projection  operators is LMAX  =           4
   number of lm-projection operators is LMMAX =           8
 
 Optimization of the real space projectors (new method)

 maximal supplied QI-value         = 24.76
 optimisation between [QCUT,QGAM] = [ 10.15, 20.30] = [ 28.85,115.39] Ry 
 Optimized for a Real-space Cutoff    1.51 Angstroem

   l    n(q)    QCUT    max X(q) W(low)/X(q) W(high)/X(q)  e(spline) 
   0      9    10.150     4.192    0.32E-04    0.13E-04    0.13E-06
   0      9    10.150     8.473    0.18E-03    0.20E-03    0.43E-06
   1      9    10.150     2.474    0.32E-04    0.33E-04    0.64E-07
   1      9    10.150     3.912    0.13E-03    0.16E-03    0.33E-06
 Optimization of the real space projectors (new method)

 maximal supplied QI-value         = 19.84
 optimisation between [QCUT,QGAM] = [ 10.12, 20.44] = [ 28.68,116.96] Ry 
 Optimized for a Real-space Cutoff    1.38 Angstroem

   l    n(q)    QCUT    max X(q) W(low)/X(q) W(high)/X(q)  e(spline) 
   0      8    10.119     8.708    0.16E-04    0.67E-05    0.60E-08
   0      8    10.119   106.241    0.56E-04    0.11E-03    0.54E-07
   1      8    10.119     5.901    0.16E-04    0.16E-05    0.22E-07
   1      8    10.119    73.241    0.22E-03    0.17E-03    0.18E-06
 Optimization of the real space projectors (new method)

 maximal supplied QI-value         = 19.84
 optimisation between [QCUT,QGAM] = [ 10.12, 20.44] = [ 28.68,116.96] Ry 
 Optimized for a Real-space Cutoff    1.26 Angstroem

   l    n(q)    QCUT    max X(q) W(low)/X(q) W(high)/X(q)  e(spline) 
   0      8    10.119    13.410    0.28E-04    0.17E-04    0.51E-08
   0      8    10.119   140.052    0.10E-03    0.16E-03    0.42E-07
   1      7    10.119     9.624    0.38E-04    0.42E-05    0.15E-07
   1      7    10.119    53.353    0.23E-03    0.17E-03    0.13E-06
 Optimization of the real space projectors (new method)

 maximal supplied QI-value         = 15.68
 optimisation between [QCUT,QGAM] = [ 10.20, 20.39] = [ 29.11,116.42] Ry 
 Optimized for a Real-space Cutoff    1.51 Angstroem

   l    n(q)    QCUT    max X(q) W(low)/X(q) W(high)/X(q)  e(spline) 
   2      8    10.195     3.831    0.11E-04    0.20E-04    0.48E-07
   2      8    10.195    20.184    0.23E-03    0.42E-03    0.20E-06
   0      9    10.195    16.770    0.13E-04    0.90E-05    0.63E-08
   0      9    10.195    80.708    0.19E-03    0.15E-03    0.44E-07
   1      9    10.195     6.696    0.12E-04    0.45E-04    0.30E-07
   1      9    10.195     8.973    0.12E-03    0.15E-03    0.13E-06
 Optimization of the real space projectors (new method)

 maximal supplied QI-value         = 25.13
 optimisation between [QCUT,QGAM] = [ 10.05, 20.36] = [ 28.30,116.06] Ry 
 Optimized for a Real-space Cutoff    1.38 Angstroem

   l    n(q)    QCUT    max X(q) W(low)/X(q) W(high)/X(q)  e(spline) 
   0      8    10.053     5.582    0.33E-04    0.15E-04    0.75E-07
   0      8    10.053    69.432    0.23E-03    0.38E-03    0.25E-06
   1      8    10.053     2.780    0.76E-04    0.11E-03    0.15E-06
   1      8    10.053     4.549    0.19E-03    0.19E-03    0.27E-06
 PAW_PBE O 08Apr2002                    :
 energy of atom  1       EATOM= -432.3788
 kinetic energy error for atom=    0.1156 (will be added to EATOM!!)
 PAW_PBE Si 05Jan2001                   :
 energy of atom  2       EATOM= -103.0669
 kinetic energy error for atom=    0.0012 (will be added to EATOM!!)
 PAW_PBE Al 04Jan2001                   :
 energy of atom  3       EATOM=  -53.5387
 kinetic energy error for atom=    0.0005 (will be added to EATOM!!)
 PAW_PBE Ag 06Sep2000                   :
 energy of atom  4       EATOM=-1037.4134
 kinetic energy error for atom=    0.0091 (will be added to EATOM!!)
 PAW_PBE C 08Apr2002                    :
 energy of atom  5       EATOM= -147.1560
 kinetic energy error for atom=    0.0288 (will be added to EATOM!!)
 
 
 POSCAR: O  C                                    
  positions in direct lattice
  velocities in cartesian coordinates
 exchange correlation table for  LEXCH =        8
   RHO(1)=    0.500       N(1)  =     2000
   RHO(2)=  100.500       N(2)  =     4000

 VTST: version 3.2, (02/03/18)

 CHAIN: initializing optimizer
 
 OPT: Using VASP Dynamics algorithm
 CHAIN: Read ICHAIN            0
 
 POSCAR: O  C                                    
  positions in direct lattice
  velocities in cartesian coordinates
 


--------------------------------------------------------------------------------------------------------


 ion  position               nearest neighbor table
   1  0.897  0.097  0.119-  75 1.63  82 1.63
   2  0.108  0.888  0.883-  81 1.62  76 1.62
   3  0.892  0.794  0.128-  85 1.62  77 1.64
   4  0.093  0.195  0.866-  78 1.63  84 1.63
   5  0.194  0.103  0.116-  79 1.63  83 1.63
   6  0.798  0.903  0.882-  80 1.59 108 1.73
   7  0.552  0.427  0.456-  86 1.62  92 1.63
   8  0.762  0.234  0.219-  91 1.59 109 1.73
   9  0.565  0.140  0.470-  96 1.64  87 1.64
  10  0.764  0.538  0.204-  95 1.63  88 1.63
  11  0.862  0.424  0.463-  94 1.63  89 1.64
  12  0.463  0.236  0.183-  90 1.63  93 1.64
  13  0.228  0.775  0.777- 104 1.61  97 1.64
  14  0.423  0.569  0.524-  98 1.66 103 1.66 112 2.55
  15  0.231  0.452  0.774- 107 1.62  99 1.62
  16  0.427  0.851  0.530- 100 1.62 110 1.79 112 2.28
  17  0.531  0.756  0.804- 101 1.63 106 1.64
  18  0.121  0.559  0.534- 105 1.65 102 1.68 112 2.46
  19  0.975  0.315  0.161-  75 1.61  91 1.63
  20  0.018  0.669  0.840- 104 1.62  76 1.63
  21  0.677  0.673  0.174-  95 1.61  77 1.63
  22  0.311  0.316  0.819- 107 1.62  78 1.63
  23  0.316  0.015  0.179-  79 1.61  93 1.63
  24  0.661  0.980  0.827- 106 1.62  80 1.63
  25  0.326  0.987  0.838-  81 1.61  97 1.63
  26  0.675  0.004  0.162-  82 1.60 109 1.74 111 2.55
  27  0.672  0.673  0.811- 101 1.61 108 1.77 113 2.40
  28  0.330  0.323  0.157-  83 1.62  90 1.62
  29  0.017  0.337  0.832-  99 1.61  84 1.62
  30  0.986  0.671  0.175-  88 1.62  85 1.62
  31  0.645  0.641  0.503- 103 1.61  86 1.62
  32  0.340  0.993  0.475-  87 1.59 110 1.71
  33  0.993  0.337  0.498- 105 1.61  89 1.63
  34  0.334  0.349  0.482-  98 1.61  92 1.63
  35  0.984  0.643  0.504- 102 1.62  94 1.62
  36  0.649  0.007  0.514- 100 1.61  96 1.64
  37  0.116  0.243  0.130-  83 1.61  75 1.62
  38  0.889  0.756  0.856-  76 1.62 108 1.77 113 2.32
  39  0.759  0.878  0.110-  82 1.60  77 1.61
  40  0.228  0.108  0.870-  78 1.61  81 1.62
  41  0.111  0.883  0.126-  79 1.61  85 1.61
  42  0.874  0.123  0.859-  84 1.61  80 1.63
  43  0.771  0.553  0.470-  86 1.61  94 1.62
  44  0.534  0.087  0.175-  93 1.62 109 1.79 111 2.31
  45  0.415  0.210  0.467-  92 1.60  87 1.64
  46  0.902  0.454  0.196-  88 1.61  91 1.63
  47  0.782  0.206  0.453-  89 1.60  96 1.63
  48  0.544  0.456  0.196-  90 1.61  95 1.62
  49  0.445  0.892  0.806- 106 1.62  97 1.64
  50  0.208  0.428  0.540-  98 1.62 105 1.62
  51  0.118  0.555  0.801-  99 1.61 104 1.62
  52  0.577  0.787  0.520- 103 1.61 100 1.64
  53  0.450  0.535  0.801- 107 1.62 101 1.63
  54  0.201  0.775  0.542- 102 1.58 110 1.74 112 2.77
  55  0.996  0.258  0.995-  84 1.62  75 1.63
  56  0.988  0.726  0.003-  76 1.62  85 1.63
  57  0.731  0.712  1.000-  77 1.60 108 1.72
  58  0.254  0.265  0.991-  78 1.63  83 1.63
  59  0.271  0.004  0.005-  81 1.63  79 1.64
  60  0.663  0.589  0.334-  86 1.61  95 1.63
  61  0.630  0.048  0.341-  96 1.60 109 1.72
  62  0.440  0.108  0.325-  93 1.61  87 1.63
  63  0.914  0.583  0.336-  94 1.62  88 1.63
  64  0.937  0.346  0.330-  89 1.62  91 1.64
  65  0.402  0.322  0.322-  92 1.62  90 1.63
  66  0.355  0.948  0.667-  97 1.59 110 1.74
  67  0.351  0.410  0.655-  98 1.62 107 1.64
  68  0.057  0.405  0.666- 105 1.62  99 1.63
  69  0.574  0.897  0.667- 106 1.61 100 1.62
  70  0.566  0.658  0.660- 103 1.61 101 1.63
  71  0.052  0.642  0.670- 102 1.64 104 1.64
  72  0.730  0.013  0.994-  80 1.66  82 1.67 111 2.49
  73  0.611  0.286  0.635- 114 1.17
  74  0.773  0.458  0.672- 114 1.19 113 2.32
  75  0.994  0.227  0.102-  19 1.61  37 1.62  55 1.63   1 1.63  83 3.10  91 3.10  82 3.12  84 3.14

  76  0.001  0.762  0.897-  38 1.62  56 1.62   2 1.62  20 1.63 104 3.06  85 3.11 108 3.18 113 3.33

  77  0.764  0.763  0.100-  57 1.60  39 1.61  21 1.63   3 1.64  95 3.01 108 3.07  85 3.10
  78  0.221  0.221  0.888-  40 1.61  58 1.63  22 1.63   4 1.63 107 3.07  83 3.11  84 3.12
  79  0.223  0.002  0.106-  41 1.61  23 1.61   5 1.63  59 1.64  93 3.03  81 3.07
  80  0.768  0.001  0.889-   6 1.59  42 1.63  24 1.63  72 1.66 106 3.07  84 3.09  82 3.09 108 3.24

  81  0.233  0.997  0.899-  25 1.61  40 1.62   2 1.62  59 1.63  97 3.06  79 3.07
  82  0.767  0.998  0.099-  26 1.60  39 1.60   1 1.63  72 1.67  80 3.09  75 3.12 109 3.16 111 3.17

  83  0.224  0.233  0.098-  37 1.61  28 1.62   5 1.63  58 1.63  90 3.05  75 3.10  78 3.11
  84  0.995  0.226  0.889-  42 1.61  55 1.62  29 1.62   4 1.63  99 3.07  80 3.09  78 3.12  75 3.14

  85  0.993  0.769  0.107-  41 1.61   3 1.62  30 1.62  56 1.63  88 3.03  77 3.10  76 3.11
  86  0.658  0.552  0.438-  60 1.61  43 1.61   7 1.62  31 1.62 103 3.07  94 3.10  95 3.14  92 3.14

  87  0.438  0.109  0.435-  32 1.59  62 1.63  45 1.64   9 1.64  96 3.03  92 3.04 110 3.07
  88  0.891  0.560  0.227-  46 1.61  30 1.62  63 1.63  10 1.63  85 3.03  91 3.10  95 3.14
  89  0.891  0.326  0.434-  47 1.60  64 1.62  33 1.63  11 1.64 105 3.03  91 3.07  94 3.11
  90  0.436  0.334  0.216-  48 1.61  28 1.62  12 1.63  65 1.63  83 3.05  93 3.06  95 3.13
  91  0.889  0.333  0.226-   8 1.59  19 1.63  46 1.63  64 1.64  89 3.07  88 3.10  75 3.10 109 3.24

  92  0.426  0.325  0.430-  45 1.60  65 1.62   7 1.63  34 1.63  87 3.04  98 3.05  86 3.14
  93  0.439  0.111  0.216-  62 1.61  44 1.62  23 1.63  12 1.64  79 3.03  90 3.06 109 3.07
  94  0.883  0.550  0.441-  63 1.62  35 1.62  43 1.62  11 1.63 102 3.05  86 3.10  89 3.11
  95  0.663  0.564  0.226-  21 1.61  48 1.62  10 1.63  60 1.63  77 3.01  90 3.13  86 3.14  88 3.14

  96  0.655  0.099  0.441-  61 1.60  47 1.63  36 1.64   9 1.64  87 3.03 100 3.04 109 3.11
  97  0.338  0.902  0.768-  66 1.59  25 1.63  13 1.64  49 1.64  81 3.06 106 3.09 110 3.13
  98  0.329  0.436  0.552-  34 1.61  50 1.62  67 1.62  14 1.66  92 3.05 103 3.10 107 3.11
  99  0.106  0.437  0.769-  29 1.61  51 1.61  15 1.62  68 1.63  84 3.07 105 3.08 104 3.09
 100  0.556  0.888  0.558-  36 1.61  69 1.62  16 1.62  52 1.64 103 3.04  96 3.04 110 3.18 112 3.34

 101  0.555  0.656  0.770-  27 1.61  70 1.63  53 1.63  17 1.63 107 3.07 106 3.09 108 3.12
 102  0.091  0.659  0.563-  54 1.58  35 1.62  71 1.64  18 1.68  94 3.05 104 3.08 105 3.14 112 3.26

 103  0.554  0.665  0.553-  70 1.61  31 1.61  52 1.61  14 1.66 100 3.04  86 3.07  98 3.10
 104  0.107  0.663  0.771-  13 1.61  51 1.62  20 1.62  71 1.64  76 3.06 102 3.08  99 3.09
 105  0.092  0.430  0.560-  33 1.61  68 1.62  50 1.62  18 1.65  89 3.03  99 3.08 102 3.14
 106  0.553  0.881  0.775-  69 1.61  49 1.62  24 1.62  17 1.64  80 3.07 101 3.09  97 3.09
 107  0.335  0.428  0.762-  22 1.62  15 1.62  53 1.62  67 1.64 101 3.07  78 3.07  98 3.11
 108  0.770  0.765  0.892-  57 1.72   6 1.73  38 1.77  27 1.77  77 3.07 113 3.09 101 3.12  76 3.18
                            80 3.24
 109  0.654  0.095  0.230-  61 1.72   8 1.73  26 1.74  44 1.79  93 3.07 111 3.10  96 3.11  82 3.16
                            91 3.24
 110  0.330  0.898  0.556-  32 1.71  66 1.74  54 1.74  16 1.79  87 3.07  97 3.13 100 3.18 112 3.23

 111  0.560  0.024  0.036-  44 2.31  72 2.49  26 2.55 109 3.10  82 3.17
 112  0.317  0.671  0.480-  16 2.28  18 2.46  14 2.55  54 2.77 110 3.23 102 3.26 100 3.34
 113  0.799  0.620  0.745-  38 2.32  74 2.32  27 2.40 108 3.09  76 3.33
 114  0.692  0.372  0.653-  73 1.17  74 1.19
 
  LATTYP: Found a hexagonal cell.
 ALAT       =    13.6750001907
 C/A-ratio  =     1.0798537472
  
  Lattice vectors:
  
 A1 = (  13.6750001907,   0.0000000000,   0.0000000000)
 A2 = (  -6.8375000954,  11.8428975619,   0.0000000000)
 A3 = (   0.0000000000,   0.0000000000,  14.7670001984)


Analysis of symmetry for initial positions (statically):
=====================================================================
 Subroutine PRICEL returns:
 Original cell was already a primitive cell.
 

 Routine SETGRP: Setting up the symmetry group for a 
 hexagonal supercell.


 Subroutine GETGRP returns: Found  1 space group operations
 (whereof  1 operations were pure point group operations)
 out of a pool of 24 trial point group operations.


The static configuration has the point symmetry C_1 .


Analysis of symmetry for dynamics (positions and initial velocities):
=====================================================================
 Subroutine PRICEL returns:
 Original cell was already a primitive cell.
 

 Routine SETGRP: Setting up the symmetry group for a 
 hexagonal supercell.


 Subroutine GETGRP returns: Found  1 space group operations
 (whereof  1 operations were pure point group operations)
 out of a pool of 24 trial point group operations.


The dynamic configuration has the point symmetry C_1 .


Analysis of structural, dynamic, and magnetic symmetry:
=====================================================================
 Subroutine PRICEL returns:
 Original cell was already a primitive cell.
 

 Routine SETGRP: Setting up the symmetry group for a 
 hexagonal supercell.


 Subroutine GETGRP returns: Found  1 space group operations
 (whereof  1 operations were pure point group operations)
 out of a pool of 24 trial point group operations.


The magnetic configuration has the point symmetry C_1 .


 Subroutine INISYM returns: Found  1 space group operations
 (whereof  1 operations are pure point group operations),
 and found     1 'primitive' translations

 
 
 KPOINTS: Gamma points only                       
  k-points in reciprocal lattice
Space group operators:
 irot       det(A)        alpha          n_x          n_y          n_z        tau_x        tau_y        tau_z
    1     1.000000     0.000000     1.000000     0.000000     0.000000     0.000000     0.000000     0.000000

 ----------------------------------------------------------------------------- 
|                                                                             |
|           W    W    AA    RRRRR   N    N  II  N    N   GGGG   !!!           |
|           W    W   A  A   R    R  NN   N  II  NN   N  G    G  !!!           |
|           W    W  A    A  R    R  N N  N  II  N N  N  G       !!!           |
|           W WW W  AAAAAA  RRRRR   N  N N  II  N  N N  G  GGG   !            |
|           WW  WW  A    A  R   R   N   NN  II  N   NN  G    G                |
|           W    W  A    A  R    R  N    N  II  N    N   GGGG   !!!           |
|                                                                             |
|      Your generating k-point grid is not commensurate to the symmetry       |
|      of the lattice.  This can cause   slow convergence with respect        |
|      to k-points for HF type calculations                                   |
|      suggested SOLUTIONS:                                                   |
|       ) if not already the case, use automatic k-point generation           |
|       ) shift your grid to Gamma (G) (e.g. required for hex or fcc lattice) |
|                                                                             |
 ----------------------------------------------------------------------------- 

 
 Subroutine IBZKPT_HF returns following result:
 ==============================================
 
 Found      1 k-points in 1st BZ
 the following      1 k-points will be used (e.g. in the exchange kernel)
 Following reciprocal coordinates:   # in IRBZ
  0.000000  0.000000  0.000000    1.00000000   1 t-inv F


--------------------------------------------------------------------------------------------------------




 Dimension of arrays:
   k-points           NKPTS =      1   k-points in BZ     NKDIM =      1   number of bands    NBANDS=    432
   number of dos      NEDOS =    301   number of ions     NIONS =    114
   non local maximal  LDIM  =      6   non local SUM 2l+1 LMDIM =     18
   total plane-waves  NPLWV = 777600
   max r-space proj   IRMAX =   4725   max aug-charges    IRDMAX= 128081
   dimension x,y,z NGX =    90 NGY =   90 NGZ =   96
   dimension x,y,z NGXF=   180 NGYF=  180 NGZF=  192
   support grid    NGXF=   360 NGYF=  360 NGZF=  384
   ions per type =              74  33   3   3   1
   NGX,Y,Z   is equivalent  to a cutoff of  10.94, 10.94, 10.81 a.u.
   NGXF,Y,Z  is equivalent  to a cutoff of  21.88, 21.88, 21.62 a.u.

 SYSTEM =  SiO2                                    
 POSCAR =  O  C                                    

 Startparameter for this run:
   NWRITE =      2    write-flag & timer
   PREC   = acc       normal or accurate (medium, high low for compatibility)
   ISTART =      0    job   : 0-new  1-cont  2-samecut
   ICHARG =      2    charge: 1-file 2-atom 10-const
   ISPIN  =      2    spin polarized calculation?
   LNONCOLLINEAR =      F non collinear calculations
   LSORBIT =      F    spin-orbit coupling
   INIWAV =      1    electr: 0-lowe 1-rand  2-diag
   LASPH  =      F    aspherical Exc in radial PAW
   METAGGA=      F    non-selfconsistent MetaGGA calc.

 Electronic Relaxation 1
   ENCUT  =  400.0 eV  29.40 Ry    5.42 a.u.  22.30 22.30 24.08*2*pi/ulx,y,z
   ENINI  =  400.0     initial cutoff
   ENAUG  =  644.9 eV  augmentation charge cutoff
   NELM   =    100;   NELMIN=  2; NELMDL=  0     # of ELM steps 
   EDIFF  = 0.1E-04   stopping-criterion for ELM
   LREAL  =      T    real-space projection
   NLSPLINE    = F    spline interpolate recip. space projectors
   LCOMPAT=      F    compatible to vasp.4.4
   GGA_COMPAT  = T    GGA compatible to vasp.4.4-vasp.4.6
   LMAXPAW     = -100 max onsite density
   LMAXMIX     =    2 max onsite mixed and CHGCAR
   VOSKOWN=      0    Vosko Wilk Nusair interpolation
   ROPT   =   -0.00025  -0.00025  -0.00025  -0.00025
   ROPT   =   -0.00025
 Ionic relaxation
   EDIFFG = 0.1E-03   stopping-criterion for IOM
   NSW    =      0    number of steps for IOM
   NBLOCK =      1;   KBLOCK =      1    inner block; outer block 
   IBRION =     -1    ionic relax: 0-MD 1-quasi-New 2-CG
   NFREE  =      0    steps in history (QN), initial steepest desc. (CG)
   ISIF   =      0    stress and relaxation
   IWAVPR =     10    prediction:  0-non 1-charg 2-wave 3-comb
   ISYM   =      3    0-nonsym 1-usesym 2-fastsym
   LCORR  =      T    Harris-Foulkes like correction to forces

   POTIM  = 0.5000    time-step for ionic-motion
   TEIN   =    0.0    initial temperature
   TEBEG  =    0.0;   TEEND  =   0.0 temperature during run
   SMASS  =  -3.00    Nose mass-parameter (am)
   estimated Nose-frequenzy (Omega)   =  0.10E-29 period in steps =****** mass=  -0.427E-26a.u.
   SCALEE = 1.0000    scale energy and forces
   NPACO  =    256;   APACO  = 16.0  distance and # of slots for P.C.
   PSTRESS=    0.0 pullay stress

  Mass of Ions in am
   POMASS =  16.00 28.09 26.98107.87 12.01
  Ionic Valenz
   ZVAL   =   6.00  4.00  3.00 11.00  4.00
  Atomic Wigner-Seitz radii
   RWIGS  =  -1.00 -1.00 -1.00 -1.00 -1.00
  virtual crystal weights 
   VCA    =   1.00  1.00  1.00  1.00  1.00
   NELECT =     622.0000    total number of electrons
   NUPDOWN=      -1.0000    fix difference up-down

 DOS related values:
   EMIN   =  10.00;   EMAX   =-10.00  energy-range for DOS
   EFERMI =   0.00
   ISMEAR =     0;   SIGMA  =   0.05  broadening in eV -4-tet -1-fermi 0-gaus

 Electronic relaxation 2 (details)
   IALGO  =     38    algorithm
   LDIAG  =      T    sub-space diagonalisation (order eigenvalues)
   LSUBROT=      F    optimize rotation matrix (better conditioning)
   TURBO    =      0    0=normal 1=particle mesh
   IRESTART =      0    0=no restart 2=restart with 2 vectors
   NREBOOT  =      0    no. of reboots
   NMIN     =      0    reboot dimension
   EREF     =   0.00    reference energy to select bands
   IMIX   =      1    mixing-type and parameters
     AMIX     =   0.40;   BMIX     =  1.00
     AMIX_MAG =   1.60;   BMIX_MAG =  1.00
     AMIN     =   0.10
     WC   =   100.;   INIMIX=   1;  MIXPRE=   1;  MAXMIX= -45

 Intra band minimization:
   WEIMIN = 0.0000     energy-eigenvalue tresh-hold
   EBREAK =  0.58E-08  absolut break condition
   DEPER  =   0.30     relativ break condition  

   TIME   =   0.40     timestep for ELM

  volume/ion in A,a.u.               =      20.98       141.57
  Fermi-wavevector in a.u.,A,eV,Ry     =   1.044991  1.974746 14.857638  1.092006
  Thomas-Fermi vector in A             =   2.179767
 
 Write flags
   LWAVE        =      F    write WAVECAR
   LDOWNSAMPLE  =      F    k-point downsampling of WAVECAR
   LCHARG       =      F    write CHGCAR
   LVTOT        =      F    write LOCPOT, total local potential
   LVHAR        =      F    write LOCPOT, Hartree potential only
   LELF         =      F    write electronic localiz. function (ELF)
   LORBIT       =     11    0 simple, 1 ext, 2 COOP (PROOUT), +10 PAW based schemes


 Dipole corrections
   LMONO  =      F    monopole corrections only (constant potential shift)
   LDIPOL =      F    correct potential (dipole corrections)
   IDIPOL =      0    1-x, 2-y, 3-z, 4-all directions 
   EPSILON=  1.0000000 bulk dielectric constant

 Exchange correlation treatment:
   GGA     =    PE    GGA type
   LEXCH   =     8    internal setting for exchange type
   VOSKOWN=      0    Vosko Wilk Nusair interpolation
   EXXOEP  =     0    0=HF, 1=EXX-LHF (local Hartree Fock) 2=EXX OEP
   LHFCALC =     T    Hartree Fock is set to
   LSYMGRAD=     F    symmetrize gradient (conserves proper symmetry)
   PRECFOCK=normal    Normal, Fast or Accurate (Low or Medium for compatibility)
   LRHFCALC=     F    long range Hartree Fock
   LRSCOR  =     F    long range correlation only (use DFT for short range part)
   LTHOMAS =     F    Thomas Fermi screening in HF
   LMODELHF=     F    short range full HF, long range fraction AEXX
   ENCUT4O =  -1.0   cutoff for four orbital integrals eV
   LMAXFOCK=     4    L truncation for augmentation on plane wave grid
   LMAXFOCKAE=  -1    L truncation for all-electron charge restoration on plane wave grid
   NMAXFOCKAE=   1    number of basis functions for all-electron charge restoration
   LFOCKAEDFT=     F  apply the AE augmentation even for DFT
   NKREDX  =     1    reduce k-point grid by
   NKREDY  =     1    reduce k-point grid by
   NKREDZ  =     1    reduce k-point grid by
   SHIFTRED=     F    shift reduced grid of Gamma
   HFKIDENT=     F    idential grid for each k-point
   ODDONLY =     F    use only odd q-grid points
   EVENONLY=     F    use only even q-grid points
   HFALPHA =   -1.0000 decay constant for conv. correction
   MCALPHA =    0.0000 extent of test-charge in conv. correction in multipole expansion
   AEXX    =    0.2500 exact exchange contribution
   HFSCREEN=    0.2000 screening length (either q_TF or 0.3 A-1)
   HFSCREENC=   0.2000 screening length for correlation (either q_TF or 0.3 A-1)
   HFRCUT  =    0.0000 spherical cutoff for potential kernel
   ALDAX   =    0.7500 LDA exchange part
   AGGAX   =    0.7500 GGA exchange part
   ALDAC   =    1.0000 LDA correlation
   AGGAC   =    1.0000 GGA correlation
   ENCUTFOCK=  -1.0 apply spherical cutoff to Coloumb kernel
   NBANDSGWLOW=     1    first orbital included in HF term
   NBLOCK_FOCK=    64    blocking factor in FOCK_ACC
 Linear response parameters
   LEPSILON=     F    determine dielectric tensor
   LRPA    =     F    only Hartree local field effects (RPA)
   LNABLA  =     F    use nabla operator in PAW spheres
   LVEL    =     F    velocity operator in full k-point grid
   LINTERFAST=   F  fast interpolation
   KINTER  =     0    interpolate to denser k-point grid
   CSHIFT  =0.1000    complex shift for real part using Kramers Kronig
   OMEGAMAX=  -1.0    maximum frequency
   DEG_THRESHOLD= 0.2000000E-02 threshold for treating states as degnerate
   RTIME   =   -0.100 relaxation time in fs
  (WPLASMAI=    0.000 imaginary part of plasma frequency in eV, 0.658/RTIME)
   DFIELD  = 0.0000000 0.0000000 0.0000000 field for delta impulse in time
 
 Orbital magnetization related:
   ORBITALMAG=     F  switch on orbital magnetization
   LCHIMAG   =     F  perturbation theory with respect to B field
   DQ        =  0.001000  dq finite difference perturbation B field
   LLRAUG    =     F  two centre corrections for induced B field



--------------------------------------------------------------------------------------------------------


 Static calculation
 charge density and potential will be updated during run
 spin polarized calculation
 Variant of blocked Davidson
 Davidson routine will perform the subspace rotation
 perform sub-space diagonalisation
    after iterative eigenvector-optimisation
 Kerker-like  mixing scheme
 using additional bands          121
 real space projection scheme for non local part
 use partial core corrections
 calculate Harris-corrections to forces 
   (improved forces if not selfconsistent)
 use gradient corrections 
 use of overlap-Matrix (Vanderbilt PP)
 Gauss-broadening in eV      SIGMA  =   0.05


--------------------------------------------------------------------------------------------------------


  energy-cutoff  :      400.00
  volume of cell :     2391.54
      direct lattice vectors                 reciprocal lattice vectors
    13.675000191  0.000000000  0.000000000     0.073126142  0.042219398  0.000000000
    -6.837500095 11.842897562  0.000000000     0.000000000  0.084438795  0.000000000
     0.000000000  0.000000000 14.767000198     0.000000000  0.000000000  0.067718561

  length of vectors
    13.675000191 13.675000191 14.767000198     0.084438795  0.084438795  0.067718561


 
 k-points in units of 2pi/SCALE and weight: Gamma points only                       
   0.00000000  0.00000000  0.00000000       1.000
 
 k-points in reciprocal lattice and weights: Gamma points only                       
   0.00000000  0.00000000  0.00000000       1.000
 
 position of ions in fractional coordinates (direct lattice) 
   0.89657642  0.09681476  0.11874539
   0.10784447  0.88832779  0.88329997
   0.89225828  0.79436768  0.12759870
   0.09286870  0.19496249  0.86621059
   0.19399473  0.10349331  0.11607388
   0.79812751  0.90295582  0.88157061
   0.55217107  0.42655694  0.45583629
   0.76171250  0.23382829  0.21878200
   0.56455562  0.13985534  0.47030652
   0.76443161  0.53791718  0.20354799
   0.86160210  0.42430237  0.46320022
   0.46310009  0.23609227  0.18341779
   0.22844235  0.77508419  0.77740509
   0.42300452  0.56859967  0.52363829
   0.23120203  0.45187275  0.77379098
   0.42746930  0.85123555  0.53048907
   0.53106557  0.75606283  0.80425297
   0.12101784  0.55866462  0.53350890
   0.97524343  0.31518800  0.16120662
   0.01769690  0.66925518  0.84017931
   0.67685185  0.67328801  0.17356270
   0.31050981  0.31633129  0.81854796
   0.31614208  0.01490779  0.17918964
   0.66115038  0.98030665  0.82691755
   0.32562077  0.98704628  0.83830135
   0.67538381  0.00367502  0.16208467
   0.67162150  0.67276016  0.81127863
   0.33044189  0.32326616  0.15738976
   0.01654637  0.33664168  0.83248219
   0.98595601  0.67129640  0.17455464
   0.64542456  0.64094377  0.50339204
   0.34047704  0.99320385  0.47499556
   0.99266212  0.33668975  0.49819435
   0.33449074  0.34871185  0.48201929
   0.98418122  0.64259520  0.50397451
   0.64870701  0.00671176  0.51447407
   0.11573597  0.24271700  0.12955234
   0.88897631  0.75639222  0.85578758
   0.75902946  0.87772539  0.11019805
   0.22776272  0.10820170  0.87025552
   0.11134022  0.88259154  0.12601881
   0.87366943  0.12251050  0.85930817
   0.77095814  0.55324373  0.47033169
   0.53393810  0.08656655  0.17458118
   0.41454053  0.20972137  0.46740165
   0.90153377  0.45357128  0.19556406
   0.78194180  0.20598803  0.45267927
   0.54440033  0.45601126  0.19607471
   0.44531820  0.89195413  0.80613838
   0.20774571  0.42784160  0.53982964
   0.11769212  0.55475666  0.80093742
   0.57706978  0.78691609  0.51976735
   0.44972798  0.53460771  0.80054233
   0.20080286  0.77507529  0.54248973
   0.99601110  0.25759636  0.99511180
   0.98818317  0.72643966  0.00327744
   0.73097504  0.71170211  0.99952725
   0.25383987  0.26509502  0.99141151
   0.27140548  0.00448444  0.00458211
   0.66281301  0.58911953  0.33402019
   0.63023405  0.04832643  0.34092056
   0.43952013  0.10826443  0.32494890
   0.91413888  0.58293568  0.33557364
   0.93671715  0.34602383  0.33030137
   0.40238656  0.32176422  0.32243053
   0.35452320  0.94772604  0.66669574
   0.35058471  0.40963541  0.65463670
   0.05735425  0.40542212  0.66557672
   0.57440968  0.89665268  0.66684072
   0.56589245  0.65822617  0.66043089
   0.05244668  0.64230340  0.66971167
   0.72994830  0.01261801  0.99399954
   0.61121037  0.28629883  0.63524302
   0.77343382  0.45837078  0.67205870
   0.99429728  0.22734353  0.10177255
   0.00107211  0.76211056  0.89732579
   0.76393345  0.76286109  0.09950298
   0.22056133  0.22089991  0.88761212
   0.22254220  0.00199059  0.10628702
   0.76800017  0.00094791  0.88934562
   0.23252771  0.99654756  0.89904703
   0.76702906  0.99780721  0.09880338
   0.22357951  0.23289632  0.09813181
   0.99496525  0.22624701  0.88936253
   0.99323400  0.76850407  0.10731944
   0.65755446  0.55211935  0.43828590
   0.43835757  0.10903194  0.43510447
   0.89055985  0.56038750  0.22723935
   0.89102651  0.32643350  0.43359647
   0.43573352  0.33373833  0.21559022
   0.88936119  0.33332456  0.22608451
   0.42597913  0.32512428  0.43019430
   0.43891141  0.11149251  0.21626575
   0.88346913  0.55014524  0.44091844
   0.66300955  0.56389021  0.22618941
   0.65458187  0.09918085  0.44115410
   0.33827635  0.90193336  0.76791720
   0.32924382  0.43639673  0.55171912
   0.10607475  0.43673779  0.76857959
   0.55640670  0.88799855  0.55790485
   0.55513607  0.65644113  0.77027917
   0.09072224  0.65874311  0.56335778
   0.55417414  0.66476238  0.55258734
   0.10666594  0.66277620  0.77144727
   0.09234288  0.42986637  0.56005190
   0.55265089  0.88076201  0.77464528
   0.33504238  0.42776479  0.76225790
   0.77046970  0.76549587  0.89166999
   0.65414955  0.09520844  0.23040436
   0.32961234  0.89848986  0.55594139
   0.56001750  0.02431946  0.03596119
   0.31693839  0.67094979  0.47977036
   0.79906793  0.61988710  0.74522562
   0.69155446  0.37180269  0.65310655
 
 position of ions in cartesian coordinates  (Angst):
  11.59871176  1.14656731  1.75351318
  -4.59916817 10.52037497 13.04369076
   6.77014304  9.40761505  1.88425005
  -0.06307649  2.30892075 12.79133190
   1.94524244  1.22566071  1.71406302
   4.74043330 10.69361333 13.01815337
   4.63435638  5.05167012  6.73133463
   8.81761769  2.76920445  3.23075381
   6.76403735  1.65629243  6.94501652
   6.77559364  6.37049802  3.00579322
   8.88124136  5.02496945  6.84007773
   4.71861291  2.79601653  2.70853054
  -2.17568907  9.17924262 11.47994116
   1.89678656  6.73386762  7.73256679
   0.07200785  5.35148271 11.42657160
   0.02531961 10.08109547  7.83373217
   2.09274218  8.95397461 11.87640373
  -2.16495045  6.61620787  7.87832598
  11.18135602  3.73273925  2.38053824
  -4.33402733  7.92592057 12.40692810
   4.65234237  7.97368090  2.56300044
   2.08330650  3.74627902 12.08749789
   4.22131099  0.17655142  2.64609344
   2.33838477 11.60967127 12.21109160
  -2.29606494 11.68948803 12.37919626
   9.21074576  0.04352292  2.39350434
   4.58442650  7.96742966 11.98015171
   2.30846044  3.82840806  2.32417460
  -2.07551584  3.98681291 12.29326464
   8.89295934  7.95009453  2.57764846
   4.44372790  7.59063140  7.43359036
  -2.13500785 11.76241142  7.01425947
  11.27253847  3.98738228  7.35683606
   2.18984356  4.12975873  7.11797894
   9.06493368  7.61018916  7.44219163
   8.82517676  0.07948674  7.59723872
  -0.07688812  2.87447259  1.91309936
   6.98491929  8.95787562 12.63741535
   4.37828058 10.39481184  1.62729468
   2.37482614  1.28142160 12.85106340
  -4.51214222 10.45244123  1.86091979
  11.10976401  1.45087931 12.68940397
   6.76004863  6.55200882  6.94538812
   6.70970483  1.02519884  2.57804027
   4.23487194  2.48370869  6.90212033
   9.22718078  5.37159817  2.88789451
   9.28461110  2.43949515  6.68471493
   4.32669752  5.40049466  2.89543532
  -0.00900993 10.56332135 11.90424566
  -0.08444431  5.06688421  7.97166435
  -2.18370901  6.56992631 11.82744303
   2.51089046  9.31936668  7.67540450
   2.49464995  6.33130431 11.82160881
  -2.55359824  9.17913727  8.01094597
  11.85913688  3.05068731 14.69481610
   8.54637382  8.60315043  0.04839801
   5.12982052  8.42861521 14.76001913
   1.65867305  3.13949313 14.64017395
   3.68080763  0.05310874  0.06766402
   5.03586315  6.97688223  4.93247626
   8.28801875  0.57232493  5.03437396
   5.27017981  1.28216459  4.79852052
   8.51502658  6.90364749  4.95541604
  10.44366917  4.09792479  4.87756033
   3.30257339  3.81062073  4.76133177
  -1.63197216 11.22382246  9.84509618
   1.99336379  4.85127015  9.66702023
  -1.98775442  4.80137265  9.82857154
   1.72418963 10.61896585  9.84723702
   3.23795780  7.79530514  9.75258306
  -3.67454121  7.60673331  9.88963240
   9.89576743  0.14943383 14.67839144
   6.40073363  3.39060775  9.38063382
   7.44259739  5.42843818  9.92429094
  12.04255409  2.69240618  1.50287526
  -5.19626993  9.02559726 13.25081015
   5.23072736  9.03448570  1.46936060
   1.50577309  2.61609497 13.10736836
   3.02965395  0.02357433  1.56954047
  10.49592118  0.01122598 13.13296694
  -3.63407754 11.80201067 13.27622760
   3.66661562 11.81692861  1.45902949
   1.46502125  2.75816725  1.44911252
  12.05918598  2.67942015 13.13321669
   8.32782852  9.10131496  1.58478618
   5.21694125  6.53869289  6.47216798
   5.24903399  1.29125405  6.42518778
   8.34675653  6.63661177  3.35564357
   9.95279859  3.86591847  6.40291921
   3.67672013  3.95242883  3.18362084
   9.88290764  3.94752868  3.33858994
   3.60222737  3.85041353  6.35267928
   5.23978352  1.32039435  3.19359630
   8.31982236  6.51531371  6.51104274
   5.21105629  6.67809402  3.34013906
   8.27325816  1.17458865  6.51452275
  -1.54104033 10.68150440 11.33983349
   1.51854659  5.16820179  8.14723633
  -1.53562245  5.17224091 11.34961498
   1.53717159 10.51647587  8.23858097
   3.10306959  7.77416507 11.37471268
  -3.26352937  7.80142718  8.31910448
   3.03301861  7.87271273  8.16005730
  -3.07307558  7.84919059 11.39196205
  -1.67642247  5.09086336  8.27028645
   1.53529073 10.43077426 11.43918704
   1.65686281  5.06597455 11.25626255
   5.30209515  9.06568919 13.16729088
   8.29450756  1.12754376  3.40238127
  -1.63597567 10.64072337  8.20958664
   7.49195507  0.28801291  0.53103890
  -0.25348671  7.94598968  7.08476903
   6.68877599  7.34125941 11.00474691
   6.91480639  4.40322115  9.64442448
 


--------------------------------------------------------------------------------------------------------


 k-point  1 :   0.0000 0.0000 0.0000  plane waves:   43405

 maximum and minimum number of plane-waves per node :     10852    10850

 maximum number of plane-waves:     43405
 maximum index in each direction: 
   IXMAX=   22   IYMAX=   22   IZMAX=   24
   IXMIN=  -22   IYMIN=  -22   IZMIN=  -24


 real space projection operators:
  total allocation   :      30779.91 KBytes
  max/ min on nodes  :       7858.67       7530.92


 parallel 3D FFT for wavefunctions:
    minimum data exchange during FFTs selected (reduces bandwidth)
 parallel 3D FFT for charge:
    minimum data exchange during FFTs selected (reduces bandwidth)


 FFT grid for exact exchange (Hartree Fock) 
  NGX = 70; NGY = 70; NGZ = 80

 
 Radii for the augmentation spheres in the non-local exchange
 for species   1 augmentation radius   0.820 (default was   0.722)
       energy cutoff for augmentation   1600.0
 for species   2 augmentation radius   1.055 (default was   0.989)
       energy cutoff for augmentation   1600.0
 for species   3 augmentation radius   1.041 (default was   1.041)
       energy cutoff for augmentation   1600.0
 for species   4 augmentation radius   1.279 (default was   1.125)
       energy cutoff for augmentation   1600.0
 for species   5 augmentation radius   0.795 (default was   0.699)
       energy cutoff for augmentation   1600.0

 real space projection operators:
  total allocation   :       4866.77 KBytes
  max/ min on nodes  :       1239.60       1191.96

 Maximum index for augmentation-charges in exchange          371
  SETUP_FOCK is finished

 total amount of memory used by VASP MPI-rank0   222058. kBytes
=======================================================================

   base      :      30000. kBytes
   nonlr-proj:      23227. kBytes
   fftplans  :      69849. kBytes
   grid      :      59474. kBytes
   one-center:        902. kBytes
   HF        :        259. kBytes
   wavefun   :      38347. kBytes
 
     INWAV:  cpu time    0.0000: real time    0.0002
 initial charge density was supplied:
 charge density of overlapping atoms calculated
 number of electron     622.0000000 magnetization     114.0000000
 keeping initial charge density in first step


--------------------------------------------------------------------------------------------------------


 Maximum index for non-local projection operator         1302
 Maximum index for augmentation-charges         7886 (set IRDMAX)


--------------------------------------------------------------------------------------------------------


 First call to EWALD:  gamma=   0.133
 Maximum number of real-space cells 3x 3x 3
 Maximum number of reciprocal cells 3x 3x 3

    FEWALD:  cpu time    0.0063: real time    0.0063


--------------------------------------- Iteration      1(   1)  ---------------------------------------


    POTLOK:  cpu time    1.6941: real time    1.7049
    SETDIJ:  cpu time    0.6963: real time    0.6991
     EDDAV:  cpu time   15.3034: real time   15.3850
       DOS:  cpu time    0.0007: real time    0.0006
    --------------------------------------------
      LOOP:  cpu time   17.6946: real time   17.7897

 eigenvalue-minimisations  :  1744
 total energy-change (2. order) : 0.5439422E+04  (-0.2491224E+05)
 number of electron     622.0000000 magnetization     114.0000000
 augmentation part      622.0000000 magnetization     114.0000000

 Free energy of the ion-electron system (eV)
  ---------------------------------------------------
  alpha Z        PSCENC =       648.26783371
  Ewald energy   TEWEN  =     -6501.16298808
  -Hartree energ DENC   =    -28859.28420660
  -exchange      EXHF   =         0.00000000
  -V(xc)+E(xc)   XCENC  =      1278.57585242
  PAW double counting   =     22362.63917367   -21800.82783539
  entropy T*S    EENTRO =        -0.04282190
  eigenvalues    EBANDS =      -114.37065279
  atomic energy  EATOM  =     38425.62797066
  Solvation  Ediel_sol  =         0.00000000
  ---------------------------------------------------
  free energy    TOTEN  =      5439.42232571 eV

  energy without entropy =     5439.46514761  energy(sigma->0) =     5439.44373666
  exchange ACFDT corr.  =         0.00000000  see jH, gK, PRB 81, 115126


--------------------------------------------------------------------------------------------------------




--------------------------------------- Iteration      1(   2)  ---------------------------------------


     EDDAV:  cpu time   17.9686: real time   18.0197
       DOS:  cpu time    0.0003: real time    0.0003
    --------------------------------------------
      LOOP:  cpu time   17.9690: real time   18.0200

 eigenvalue-minimisations  :  2136
 total energy-change (2. order) :-0.4381831E+04  (-0.4111580E+04)
 number of electron     622.0000000 magnetization     114.0000000
 augmentation part      622.0000000 magnetization     114.0000000

 Free energy of the ion-electron system (eV)
  ---------------------------------------------------
  alpha Z        PSCENC =       648.26783371
  Ewald energy   TEWEN  =     -6501.16298808
  -Hartree energ DENC   =    -28859.28420660
  -exchange      EXHF   =         0.00000000
  -V(xc)+E(xc)   XCENC  =      1278.57585242
  PAW double counting   =     22362.63917367   -21800.82783539
  entropy T*S    EENTRO =        -0.00000000
  eigenvalues    EBANDS =     -4496.24451075
  atomic energy  EATOM  =     38425.62797066
  Solvation  Ediel_sol  =         0.00000000
  ---------------------------------------------------
  free energy    TOTEN  =      1057.59128965 eV

  energy without entropy =     1057.59128965  energy(sigma->0) =     1057.59128965
  exchange ACFDT corr.  =         0.00000000  see jH, gK, PRB 81, 115126


--------------------------------------------------------------------------------------------------------




--------------------------------------- Iteration      1(   3)  ---------------------------------------


     EDDAV:  cpu time   17.5277: real time   17.5755
       DOS:  cpu time    0.0003: real time    0.0003
    --------------------------------------------
      LOOP:  cpu time   17.5280: real time   17.5758

 eigenvalue-minimisations  :  2064
 total energy-change (2. order) :-0.5106444E+03  (-0.5064195E+03)
 number of electron     622.0000000 magnetization     114.0000000
 augmentation part      622.0000000 magnetization     114.0000000

 Free energy of the ion-electron system (eV)
  ---------------------------------------------------
  alpha Z        PSCENC =       648.26783371
  Ewald energy   TEWEN  =     -6501.16298808
  -Hartree energ DENC   =    -28859.28420660
  -exchange      EXHF   =         0.00000000
  -V(xc)+E(xc)   XCENC  =      1278.57585242
  PAW double counting   =     22362.63917367   -21800.82783539
  entropy T*S    EENTRO =        -0.00000000
  eigenvalues    EBANDS =     -5006.88891501
  atomic energy  EATOM  =     38425.62797066
  Solvation  Ediel_sol  =         0.00000000
  ---------------------------------------------------
  free energy    TOTEN  =       546.94688539 eV

  energy without entropy =      546.94688539  energy(sigma->0) =      546.94688539
  exchange ACFDT corr.  =         0.00000000  see jH, gK, PRB 81, 115126


--------------------------------------------------------------------------------------------------------




--------------------------------------- Iteration      1(   4)  ---------------------------------------


     EDDAV:  cpu time   17.8855: real time   17.9340
       DOS:  cpu time    0.0003: real time    0.0003
    --------------------------------------------
      LOOP:  cpu time   17.8858: real time   17.9343

 eigenvalue-minimisations  :  2120
 total energy-change (2. order) :-0.1118064E+02  (-0.1112713E+02)
 number of electron     622.0000000 magnetization     114.0000000
 augmentation part      622.0000000 magnetization     114.0000000

 Free energy of the ion-electron system (eV)
  ---------------------------------------------------
  alpha Z        PSCENC =       648.26783371
  Ewald energy   TEWEN  =     -6501.16298808
  -Hartree energ DENC   =    -28859.28420660
  -exchange      EXHF   =         0.00000000
  -V(xc)+E(xc)   XCENC  =      1278.57585242
  PAW double counting   =     22362.63917367   -21800.82783539
  entropy T*S    EENTRO =        -0.00000000
  eigenvalues    EBANDS =     -5018.06955462
  atomic energy  EATOM  =     38425.62797066
  Solvation  Ediel_sol  =         0.00000000
  ---------------------------------------------------
  free energy    TOTEN  =       535.76624579 eV

  energy without entropy =      535.76624579  energy(sigma->0) =      535.76624579
  exchange ACFDT corr.  =         0.00000000  see jH, gK, PRB 81, 115126


--------------------------------------------------------------------------------------------------------




--------------------------------------- Iteration      1(   5)  ---------------------------------------


     EDDAV:  cpu time 2520.8923: real time 2528.4730
       DOS:  cpu time    0.0003: real time    0.0003
    CHARGE:  cpu time    1.3367: real time    1.3401
    MIXING:  cpu time    0.0064: real time    0.0064
    --------------------------------------------
      LOOP:  cpu time 2522.2358: real time 2529.8198

 eigenvalue-minimisations  :  2176
 total energy-change (2. order) :-0.1847449E+04  (-0.4338254E+02)
 number of electron     622.0000002 magnetization     -68.4000000
 augmentation part       70.8761053 magnetization     -67.3963090

 Free energy of the ion-electron system (eV)
  ---------------------------------------------------
  alpha Z        PSCENC =       648.26783371
  Ewald energy   TEWEN  =     -6501.16298808
  -Hartree energ DENC   =    -28859.28420660
  -exchange      EXHF   =      1782.10979218
  -V(xc)+E(xc)   XCENC  =      1278.57585242
  PAW double counting   =     22362.63917367   -21800.82783539
  entropy T*S    EENTRO =        -0.00000000
  eigenvalues    EBANDS =     -8647.62833417
  atomic energy  EATOM  =     38425.62797066
  Solvation  Ediel_sol  =         0.00000000
  ---------------------------------------------------
  free energy    TOTEN  =     -1311.68274159 eV

  energy without entropy =    -1311.68274159  energy(sigma->0) =    -1311.68274159
  exchange ACFDT corr.  =        -0.00000000  see jH, gK, PRB 81, 115126


--------------------------------------------------------------------------------------------------------




--------------------------------------- Iteration      1(   6)  ---------------------------------------


    POTLOK:  cpu time    1.4709: real time    1.4782
    SETDIJ:  cpu time    0.7048: real time    0.7066
     EDDAV:  cpu time 2395.0109: real time 2402.6446
       DOS:  cpu time    0.0003: real time    0.0003
    CHARGE:  cpu time    1.3232: real time    1.3263
    MIXING:  cpu time    0.0123: real time    0.0123
    --------------------------------------------
      LOOP:  cpu time 2398.5224: real time 2406.1683

 eigenvalue-minimisations  :  2008
 total energy-change (2. order) : 0.1853706E+03  (-0.2850104E+02)
 number of electron     622.0000003 magnetization      41.0400000
 augmentation part       64.5954867 magnetization      41.2555543

 Free energy of the ion-electron system (eV)
  ---------------------------------------------------
  alpha Z        PSCENC =       648.26783371
  Ewald energy   TEWEN  =     -6501.16298808
  -Hartree energ DENC   =    -30216.95873765
  -exchange      EXHF   =      1911.07156242
  -V(xc)+E(xc)   XCENC  =      1392.37521565
  PAW double counting   =     26246.09426714   -25703.11388196
  entropy T*S    EENTRO =        -0.00000000
  eigenvalues    EBANDS =     -7328.51338995
  atomic energy  EATOM  =     38425.62797066
  Solvation  Ediel_sol  =         0.00000000
  ---------------------------------------------------
  free energy    TOTEN  =     -1126.31214805 eV

  energy without entropy =    -1126.31214805  energy(sigma->0) =    -1126.31214805
  exchange ACFDT corr.  =         0.00000000  see jH, gK, PRB 81, 115126


--------------------------------------------------------------------------------------------------------




--------------------------------------- Iteration      1(   7)  ---------------------------------------


    POTLOK:  cpu time    1.5065: real time    1.5140
    SETDIJ:  cpu time    0.7075: real time    0.7092
     EDDAV:  cpu time 2283.5231: real time 2291.8933
       DOS:  cpu time    0.0003: real time    0.0003
    CHARGE:  cpu time    1.3293: real time    1.3326
    MIXING:  cpu time    0.0064: real time    0.0064
    --------------------------------------------
      LOOP:  cpu time 2287.0732: real time 2295.4559

 eigenvalue-minimisations  :  1888
 total energy-change (2. order) :-0.3302620E+02  (-0.1489813E+02)
 number of electron     622.0000003 magnetization     -24.6240000
 augmentation part       60.9122467 magnetization     -24.9177083

 Free energy of the ion-electron system (eV)
  ---------------------------------------------------
  alpha Z        PSCENC =       648.26783371
  Ewald energy   TEWEN  =     -6501.16298808
  -Hartree energ DENC   =    -30705.43463460
  -exchange      EXHF   =      1833.78256803
  -V(xc)+E(xc)   XCENC  =      1384.62634223
  PAW double counting   =     27775.70922009   -27235.79017339
  entropy T*S    EENTRO =        -0.00000000
  eigenvalues    EBANDS =     -6784.96448409
  atomic energy  EATOM  =     38425.62797066
  Solvation  Ediel_sol  =         0.00000000
  ---------------------------------------------------
  free energy    TOTEN  =     -1159.33834544 eV

  energy without entropy =    -1159.33834544  energy(sigma->0) =    -1159.33834544
  exchange ACFDT corr.  =        -0.00000000  see jH, gK, PRB 81, 115126


--------------------------------------------------------------------------------------------------------




--------------------------------------- Iteration      1(   8)  ---------------------------------------


    POTLOK:  cpu time    1.5116: real time    1.5254
    SETDIJ:  cpu time    0.7052: real time    0.7069
     EDDAV:  cpu time 2257.9316: real time 2265.1342
       DOS:  cpu time    0.0003: real time    0.0003
    CHARGE:  cpu time    1.3348: real time    1.3380
    MIXING:  cpu time    0.0064: real time    0.0064
    --------------------------------------------
      LOOP:  cpu time 2261.4900: real time 2268.7112

 eigenvalue-minimisations  :  1864
 total energy-change (2. order) :-0.2134840E+02  (-0.4780760E+01)
 number of electron     622.0000004 magnetization      14.7744000
 augmentation part       60.4299549 magnetization      14.7309159

 Free energy of the ion-electron system (eV)
  ---------------------------------------------------
  alpha Z        PSCENC =       648.26783371
  Ewald energy   TEWEN  =     -6501.16298808
  -Hartree energ DENC   =    -30752.43058860
  -exchange      EXHF   =      1787.04366891
  -V(xc)+E(xc)   XCENC  =      1371.69344774
  PAW double counting   =     28123.36613513   -27581.65772691
  entropy T*S    EENTRO =        -0.00000000
  eigenvalues    EBANDS =     -6701.43449334
  atomic energy  EATOM  =     38425.62797066
  Solvation  Ediel_sol  =         0.00000000
  ---------------------------------------------------
  free energy    TOTEN  =     -1180.68674077 eV

  energy without entropy =    -1180.68674077  energy(sigma->0) =    -1180.68674077
  exchange ACFDT corr.  =         0.00000000  see jH, gK, PRB 81, 115126


--------------------------------------------------------------------------------------------------------




--------------------------------------- Iteration      1(   9)  ---------------------------------------


    POTLOK:  cpu time    1.5472: real time    1.5563
    SETDIJ:  cpu time    0.7066: real time    0.7082
     EDDAV:  cpu time 2208.8287: real time 2216.0410
       DOS:  cpu time    0.0003: real time    0.0003
    CHARGE:  cpu time    1.3264: real time    1.3296
    MIXING:  cpu time    0.0114: real time    0.0115
    --------------------------------------------
      LOOP:  cpu time 2212.4206: real time 2219.6469

 eigenvalue-minimisations  :  1800
 total energy-change (2. order) :-0.1367067E+02  (-0.2008429E+01)
 number of electron     622.0000004 magnetization      -8.8646400
 augmentation part       60.6658206 magnetization      -8.9979748

 Free energy of the ion-electron system (eV)
  ---------------------------------------------------
  alpha Z        PSCENC =       648.26783371
  Ewald energy   TEWEN  =     -6501.16298808
  -Hartree energ DENC   =    -30750.07366883
  -exchange      EXHF   =      1779.07950828
  -V(xc)+E(xc)   XCENC  =      1358.96683770
  PAW double counting   =     28248.45095528   -27705.49804706
  entropy T*S    EENTRO =        -0.00000000
  eigenvalues    EBANDS =     -6698.01580794
  atomic energy  EATOM  =     38425.62797066
  Solvation  Ediel_sol  =         0.00000000
  ---------------------------------------------------
  free energy    TOTEN  =     -1194.35740627 eV

  energy without entropy =    -1194.35740627  energy(sigma->0) =    -1194.35740627
  exchange ACFDT corr.  =        -0.00000000  see jH, gK, PRB 81, 115126


--------------------------------------------------------------------------------------------------------




--------------------------------------- Iteration      1(  10)  ---------------------------------------


    POTLOK:  cpu time    1.5567: real time    1.5628
    SETDIJ:  cpu time    0.7059: real time    0.7076
     EDDAV:  cpu time 2212.5838: real time 2219.6086
       DOS:  cpu time    0.0003: real time    0.0003
    CHARGE:  cpu time    1.3101: real time    1.3525
    MIXING:  cpu time    0.0064: real time    0.0064
    --------------------------------------------
      LOOP:  cpu time 2216.1633: real time 2223.2383

 eigenvalue-minimisations  :  1808
 total energy-change (2. order) :-0.3798338E+01  (-0.8968242E+00)
 number of electron     622.0000004 magnetization       5.3187840
 augmentation part       60.8735488 magnetization       5.3016972

 Free energy of the ion-electron system (eV)
  ---------------------------------------------------
  alpha Z        PSCENC =       648.26783371
  Ewald energy   TEWEN  =     -6501.16298808
  -Hartree energ DENC   =    -30770.80376122
  -exchange      EXHF   =      1781.23648263
  -V(xc)+E(xc)   XCENC  =      1356.95727255
  PAW double counting   =     28354.36247915   -27811.04735897
  entropy T*S    EENTRO =        -0.00000000
  eigenvalues    EBANDS =     -6681.59367452
  atomic energy  EATOM  =     38425.62797066
  Solvation  Ediel_sol  =         0.00000000
  ---------------------------------------------------
  free energy    TOTEN  =     -1198.15574410 eV

  energy without entropy =    -1198.15574410  energy(sigma->0) =    -1198.15574410
  exchange ACFDT corr.  =        -0.00000000  see jH, gK, PRB 81, 115126


--------------------------------------------------------------------------------------------------------




--------------------------------------- Iteration      1(  11)  ---------------------------------------


    POTLOK:  cpu time    1.6210: real time    1.6284
    SETDIJ:  cpu time    0.7081: real time    0.7098
     EDDAV:  cpu time 2184.4827: real time 2191.2542
       DOS:  cpu time    0.0003: real time    0.0003
    CHARGE:  cpu time    1.3408: real time    1.3440
    MIXING:  cpu time    0.0066: real time    0.0067
    --------------------------------------------
      LOOP:  cpu time 2188.1597: real time 2194.9434

 eigenvalue-minimisations  :  1768
 total energy-change (2. order) :-0.4945647E+01  (-0.3829532E+00)
 number of electron     622.0000004 magnetization      -3.1912704
 augmentation part       60.8716607 magnetization      -3.2226374

 Free energy of the ion-electron system (eV)
  ---------------------------------------------------
  alpha Z        PSCENC =       648.26783371
  Ewald energy   TEWEN  =     -6501.16298808
  -Hartree energ DENC   =    -30801.31001438
  -exchange      EXHF   =      1782.89246283
  -V(xc)+E(xc)   XCENC  =      1354.27433884
  PAW double counting   =     28439.76641565   -27896.47667412
  entropy T*S    EENTRO =        -0.00000000
  eigenvalues    EBANDS =     -6654.98073667
  atomic energy  EATOM  =     38425.62797066
  Solvation  Ediel_sol  =         0.00000000
  ---------------------------------------------------
  free energy    TOTEN  =     -1203.10139156 eV

  energy without entropy =    -1203.10139156  energy(sigma->0) =    -1203.10139156
  exchange ACFDT corr.  =        -0.00000000  see jH, gK, PRB 81, 115126


--------------------------------------------------------------------------------------------------------




--------------------------------------- Iteration      1(  12)  ---------------------------------------


    POTLOK:  cpu time    1.6143: real time    1.6294
    SETDIJ:  cpu time    0.7061: real time    0.7078
     EDDAV:  cpu time 2248.8629: real time 2256.0207
       DOS:  cpu time    0.0003: real time    0.0003
    CHARGE:  cpu time    1.3289: real time    1.3320
    MIXING:  cpu time    0.0078: real time    0.0078
    --------------------------------------------
      LOOP:  cpu time 2252.5203: real time 2259.6980

 eigenvalue-minimisations  :  1856
 total energy-change (2. order) :-0.3244899E+00  (-0.1199302E+00)
 number of electron     622.0000004 magnetization       1.9147622
 augmentation part       60.8416746 magnetization       1.9156579

 Free energy of the ion-electron system (eV)
  ---------------------------------------------------
  alpha Z        PSCENC =       648.26783371
  Ewald energy   TEWEN  =     -6501.16298808
  -Hartree energ DENC   =    -30820.45268220
  -exchange      EXHF   =      1782.21818186
  -V(xc)+E(xc)   XCENC  =      1354.76625434
  PAW double counting   =     28484.02903652   -27940.77805961
  entropy T*S    EENTRO =        -0.00000000
  eigenvalues    EBANDS =     -6635.94142865
  atomic energy  EATOM  =     38425.62797066
  Solvation  Ediel_sol  =         0.00000000
  ---------------------------------------------------
  free energy    TOTEN  =     -1203.42588145 eV

  energy without entropy =    -1203.42588145  energy(sigma->0) =    -1203.42588145
  exchange ACFDT corr.  =         0.00000000  see jH, gK, PRB 81, 115126


--------------------------------------------------------------------------------------------------------




--------------------------------------- Iteration      1(  13)  ---------------------------------------


    POTLOK:  cpu time    1.7137: real time    1.7209
    SETDIJ:  cpu time    0.7058: real time    0.7075
     EDDAV:  cpu time 2256.7077: real time 2263.7630
       DOS:  cpu time    0.0003: real time    0.0003
    CHARGE:  cpu time    1.3268: real time    1.3300
    MIXING:  cpu time    0.0128: real time    0.0128
    --------------------------------------------
      LOOP:  cpu time 2260.4672: real time 2267.5345

 eigenvalue-minimisations  :  1864
 total energy-change (2. order) :-0.9358075E+00  (-0.4984870E-01)
 number of electron     622.0000004 magnetization      -1.1488573
 augmentation part       60.8141167 magnetization      -1.1538499

 Free energy of the ion-electron system (eV)
  ---------------------------------------------------
  alpha Z        PSCENC =       648.26783371
  Ewald energy   TEWEN  =     -6501.16298808
  -Hartree energ DENC   =    -30832.10238001
  -exchange      EXHF   =      1781.66159575
  -V(xc)+E(xc)   XCENC  =      1354.46055714
  PAW double counting   =     28503.59374621   -27960.33187951
  entropy T*S    EENTRO =        -0.00000000
  eigenvalues    EBANDS =     -6624.37614478
  atomic energy  EATOM  =     38425.62797066
  Solvation  Ediel_sol  =         0.00000000
  ---------------------------------------------------
  free energy    TOTEN  =     -1204.36168891 eV

  energy without entropy =    -1204.36168891  energy(sigma->0) =    -1204.36168891
  exchange ACFDT corr.  =         0.00000000  see jH, gK, PRB 81, 115126


--------------------------------------------------------------------------------------------------------




--------------------------------------- Iteration      1(  14)  ---------------------------------------


    POTLOK:  cpu time    1.6836: real time    1.6934
    SETDIJ:  cpu time    0.7063: real time    0.7080
     EDDAV:  cpu time 2239.5786: real time 2246.2703
       DOS:  cpu time    0.0003: real time    0.0003
    CHARGE:  cpu time    1.3300: real time    1.3332
    MIXING:  cpu time    0.0064: real time    0.0064
    --------------------------------------------
      LOOP:  cpu time 2243.3053: real time 2250.0117

 eigenvalue-minimisations  :  1840
 total energy-change (2. order) : 0.5285995E-01  (-0.1475204E-01)
 number of electron     622.0000004 magnetization       0.6893144
 augmentation part       60.8110375 magnetization       0.6927002

 Free energy of the ion-electron system (eV)
  ---------------------------------------------------
  alpha Z        PSCENC =       648.26783371
  Ewald energy   TEWEN  =     -6501.16298808
  -Hartree energ DENC   =    -30838.34507938
  -exchange      EXHF   =      1781.16161600
  -V(xc)+E(xc)   XCENC  =      1354.60192536
  PAW double counting   =     28509.99231627   -27966.69766435
  entropy T*S    EENTRO =        -0.00000000
  eigenvalues    EBANDS =     -6617.75475914
  atomic energy  EATOM  =     38425.62797066
  Solvation  Ediel_sol  =         0.00000000
  ---------------------------------------------------
  free energy    TOTEN  =     -1204.30882895 eV

  energy without entropy =    -1204.30882895  energy(sigma->0) =    -1204.30882895
  exchange ACFDT corr.  =        -0.00000000  see jH, gK, PRB 81, 115126


--------------------------------------------------------------------------------------------------------




--------------------------------------- Iteration      1(  15)  ---------------------------------------


    POTLOK:  cpu time    1.7355: real time    1.7459
    SETDIJ:  cpu time    0.7082: real time    0.7099
     EDDAV:  cpu time 2307.9618: real time 2315.3394
       DOS:  cpu time    0.0003: real time    0.0003
    CHARGE:  cpu time    1.3269: real time    1.3302
    MIXING:  cpu time    0.0071: real time    0.0071
    --------------------------------------------
      LOOP:  cpu time 2311.7399: real time 2319.1328

 eigenvalue-minimisations  :  1920
 total energy-change (2. order) :-0.1321634E+00  (-0.7354766E-02)
 number of electron     622.0000004 magnetization      -0.4135886
 augmentation part       60.8098698 magnetization      -0.4143458

 Free energy of the ion-electron system (eV)
  ---------------------------------------------------
  alpha Z        PSCENC =       648.26783371
  Ewald energy   TEWEN  =     -6501.16298808
  -Hartree energ DENC   =    -30843.61806055
  -exchange      EXHF   =      1781.12120389
  -V(xc)+E(xc)   XCENC  =      1354.62027824
  PAW double counting   =     28513.05636036   -27969.73715251
  entropy T*S    EENTRO =        -0.00000000
  eigenvalues    EBANDS =     -6612.61643811
  atomic energy  EATOM  =     38425.62797066
  Solvation  Ediel_sol  =         0.00000000
  ---------------------------------------------------
  free energy    TOTEN  =     -1204.44099238 eV

  energy without entropy =    -1204.44099238  energy(sigma->0) =    -1204.44099238
  exchange ACFDT corr.  =         0.00000000  see jH, gK, PRB 81, 115126


--------------------------------------------------------------------------------------------------------




--------------------------------------- Iteration      1(  16)  ---------------------------------------


    POTLOK:  cpu time    1.7218: real time    1.7293
    SETDIJ:  cpu time    0.7059: real time    0.7076
     EDDAV:  cpu time 2300.6302: real time 2308.2522
       DOS:  cpu time    0.0003: real time    0.0003
    CHARGE:  cpu time    1.3230: real time    1.3263
    MIXING:  cpu time    0.0136: real time    0.0136
    --------------------------------------------
      LOOP:  cpu time 2304.3948: real time 2312.0293

 eigenvalue-minimisations  :  1912
 total energy-change (2. order) : 0.3661671E-02  (-0.1654382E-02)
 number of electron     622.0000004 magnetization       0.2481532
 augmentation part       60.8089279 magnetization       0.2495831

 Free energy of the ion-electron system (eV)
  ---------------------------------------------------
  alpha Z        PSCENC =       648.26783371
  Ewald energy   TEWEN  =     -6501.16298808
  -Hartree energ DENC   =    -30847.83616354
  -exchange      EXHF   =      1781.06305710
  -V(xc)+E(xc)   XCENC  =      1354.69082886
  PAW double counting   =     28514.42012704   -27971.08639435
  entropy T*S    EENTRO =        -0.00000000
  eigenvalues    EBANDS =     -6608.42160210
  atomic energy  EATOM  =     38425.62797066
  Solvation  Ediel_sol  =         0.00000000
  ---------------------------------------------------
  free energy    TOTEN  =     -1204.43733071 eV

  energy without entropy =    -1204.43733071  energy(sigma->0) =    -1204.43733071
  exchange ACFDT corr.  =        -0.00000000  see jH, gK, PRB 81, 115126


[...]
      4.58443      7.96743     11.98015        -0.436560      0.127164     -0.052193
      2.30846      3.82841      2.32417         0.200962     -0.366943     -0.005134
     -2.07552      3.98681     12.29326         0.393913     -0.025648     -0.048596
      8.89296      7.95009      2.57765        -0.426303     -0.065613     -0.070283
      4.44373      7.59063      7.43359        -0.250543     -0.299662     -0.076433
     -2.13501     11.76241      7.01426         0.357964      0.311804      0.016093
     11.27254      3.98738      7.35684        -0.199678      0.401110      0.004518
      2.18984      4.12976      7.11798         0.256128      0.323188      0.112075
      9.06493      7.61019      7.44219         0.222876     -0.350414     -0.026563
      8.82518      0.07949      7.59724        -0.372899     -0.141959     -0.143214
     -0.07689      2.87447      1.91310         0.008434     -0.122662     -0.343814
      6.98492      8.95788     12.63742         0.293296      0.018444      0.353107
      4.37828     10.39481      1.62729         0.055206      0.034839     -0.152988
      2.37483      1.28142     12.85106        -0.023080      0.003497      0.283411
     -4.51214     10.45244      1.86092        -0.045258      0.046482     -0.245046
     11.10976      1.45088     12.68940         0.145608     -0.051999      0.342498
      6.76005      6.55201      6.94539        -0.005957     -0.036156     -0.346571
      6.70970      1.02520      2.57804        -0.276995      0.146524      0.370298
      4.23487      2.48371      6.90212         0.117472      0.132399     -0.394255
      9.22718      5.37160      2.88789        -0.112611     -0.033238      0.356280
      9.28461      2.43950      6.68471        -0.106707      0.124717     -0.204567
      4.32670      5.40049      2.89544         0.099923     -0.070968      0.294571
     -0.00901     10.56332     11.90425         0.022295     -0.019435     -0.372425
     -0.08444      5.06688      7.97166         0.010545      0.103861      0.192058
     -2.18371      6.56993     11.82744        -0.069523     -0.036412     -0.362763
      2.51089      9.31937      7.67540        -0.175190     -0.169917      0.385784
      2.49465      6.33130     11.82161        -0.110119      0.044501     -0.395521
     -2.55360      9.17914      8.01095        -0.061282     -0.335544      0.188988
     11.85914      3.05069     14.69482         0.158593     -0.292731     -0.005455
      8.54637      8.60315      0.04840        -0.110741      0.353397      0.006593
      5.12982      8.42862     14.76002         0.102590      0.398837      0.273841
      1.65867      3.13949     14.64017        -0.141337     -0.351181      0.005570
      3.68081      0.05311      0.06766        -0.413464     -0.035083     -0.014013
      5.03586      6.97688      4.93248         0.145001     -0.302723      0.016559
      8.28802      0.57232      5.03437        -0.028800      0.387183      0.265775
      5.27018      1.28216      4.79852        -0.023442      0.058808     -0.000431
      8.51503      6.90365      4.95542        -0.146390     -0.269995      0.008323
     10.44367      4.09792      4.87756        -0.406749     -0.123544      0.031450
      3.30257      3.81062      4.76133         0.278997      0.067904      0.007083
     -1.63197     11.22382      9.84510         0.049685     -0.370707      0.286596
      1.99336      4.85127      9.66702        -0.301260      0.227712     -0.009262
     -1.98775      4.80137      9.82857         0.294873      0.274310     -0.033381
      1.72419     10.61897      9.84724        -0.140216     -0.149824      0.022353
      3.23796      7.79531      9.75258        -0.155746      0.014602     -0.046366
     -3.67454      7.60673      9.88963         0.379084      0.148625     -0.017316
      9.89577      0.14943     14.67839         0.421053     -0.092496      0.013460
      6.40073      3.39061      9.38063         0.669439      1.321105      0.393862
      7.44260      5.42844      9.92429        -0.601292     -1.170133     -0.313419
     12.04255      2.69241      1.50288         0.023577      0.033987      0.024112
     -5.19627      9.02560     13.25081        -0.146342     -0.033999     -0.067157
      5.23073      9.03449      1.46936        -0.055189      0.010817     -0.004144
      1.50577      2.61609     13.10737         0.043381     -0.006112     -0.050156
      3.02965      0.02357      1.56954         0.021972     -0.051537      0.068436
     10.49592      0.01123     13.13297        -0.003481      0.000690      0.011940
     -3.63408     11.80201     13.27623         0.008138      0.012247     -0.055149
      3.66662     11.81693      1.45903        -0.086323     -0.056824      0.037689
      1.46502      2.75817      1.44911        -0.033828      0.052971      0.048752
     12.05919      2.67942     13.13322        -0.075886      0.018891     -0.045584
      8.32783      9.10131      1.58479         0.030556      0.003654      0.022013
      5.21694      6.53869      6.47217         0.014087      0.032309      0.056282
      5.24903      1.29125      6.42519        -0.067289     -0.034372      0.016989
      8.34676      6.63661      3.35564         0.058638      0.018267     -0.042801
      9.95280      3.86592      6.40292         0.038296     -0.052421      0.060601
      3.67672      3.95243      3.18362        -0.027781      0.032714     -0.044853
      9.88291      3.94753      3.33859         0.011316      0.008571     -0.040225
      3.60223      3.85041      6.35268        -0.020178     -0.063489      0.062409
      5.23978      1.32039      3.19360         0.157742     -0.055353      0.005988
      8.31982      6.51531      6.51104        -0.017868      0.046946      0.071010
      5.21106      6.67809      3.34014        -0.068259      0.029440     -0.038779
      8.27326      1.17459      6.51452         0.045276     -0.035530      0.019470
     -1.54104     10.68150     11.33983         0.022120      0.048131     -0.010888
      1.51855      5.16820      8.14724        -0.011923     -0.045179     -0.046126
     -1.53562      5.17224     11.34961        -0.051832     -0.006968      0.038489
      1.53717     10.51648      8.23858        -0.065751      0.043027     -0.034485
      3.10307      7.77417     11.37471         0.125460      0.004312      0.095992
     -3.26353      7.80143      8.31910        -0.001278      0.066562     -0.046659
      3.03302      7.87271      8.16006         0.048410      0.032595     -0.007422
     -3.07308      7.84919     11.39196        -0.029419     -0.041477      0.064982
     -1.67642      5.09086      8.27029        -0.019188     -0.025332     -0.020741
      1.53529     10.43077     11.43919         0.001427      0.039333      0.013428
      1.65686      5.06597     11.25626         0.042550      0.001360      0.041644
      5.30210      9.06569     13.16729         0.052758     -0.039639     -0.054136
      8.29451      1.12754      3.40238        -0.038516     -0.063037     -0.034671
     -1.63598     10.64072      8.20959         0.013158      0.004561     -0.039228
      7.49196      0.28801      0.53104        -0.008628     -0.015654      0.001582
     -0.25349      7.94599      7.08477        -0.001702      0.011736     -0.033436
      6.68878      7.34126     11.00475        -0.017552      0.063260      0.013322
      6.91481      4.40322      9.64442        -0.075220     -0.255892     -0.056234
 -----------------------------------------------------------------------------------
    total drift:                                0.000161     -0.006037      0.010421


--------------------------------------------------------------------------------------------------------



  FREE ENERGIE OF THE ION-ELECTRON SYSTEM (eV)
  ---------------------------------------------------
  free  energy   TOTEN  =     -1204.45572539 eV

  energy  without entropy=    -1204.45572539  energy(sigma->0) =    -1204.45572539
 


--------------------------------------------------------------------------------------------------------


    POTLOK:  cpu time    2.4048: real time    2.4109


--------------------------------------------------------------------------------------------------------


 stress matrix after NEB project (eV)
      0.00000      0.00000      0.00000
      0.00000      0.00000      0.00000
      0.00000      0.00000      0.00000
  FORCES: max atom, RMS     1.532513    0.361964
  FORCE total and by dimension    3.864715    1.321105
  Stress total and by dimension    0.000000    0.000000
     LOOP+:  cpu time77810.6404: real time78054.1449
    4ORBIT:  cpu time    0.0000: real time    0.0000
 


 total charge     
 
# of ion       s       p       d       tot
------------------------------------------
    1        1.578   3.720   0.000   5.298
    2        1.576   3.737   0.000   5.312
    3        1.580   3.724   0.000   5.304
    4        1.578   3.718   0.000   5.296
    5        1.577   3.727   0.000   5.304
    6        1.579   3.694   0.000   5.273
    7        1.579   3.733   0.000   5.312
    8        1.579   3.694   0.000   5.273
    9        1.581   3.700   0.000   5.281
   10        1.577   3.721   0.000   5.298
   11        1.579   3.720   0.000   5.299
   12        1.581   3.712   0.000   5.293
   13        1.574   3.741   0.000   5.315
   14        1.579   3.684   0.000   5.263
   15        1.575   3.742   0.000   5.317
   16        1.579   3.664   0.000   5.243
   17        1.579   3.711   0.000   5.290
   18        1.579   3.693   0.000   5.272
   19        1.578   3.732   0.000   5.310
   20        1.581   3.722   0.000   5.304
   21        1.582   3.723   0.000   5.306
   22        1.578   3.725   0.000   5.304
   23        1.582   3.725   0.000   5.308
   24        1.580   3.724   0.000   5.304
   25        1.579   3.725   0.000   5.304
   26        1.584   3.686   0.000   5.270
   27        1.580   3.672   0.000   5.252
   28        1.580   3.727   0.000   5.307
   29        1.580   3.736   0.000   5.316
   30        1.581   3.724   0.000   5.304
   31        1.581   3.733   0.000   5.313
   32        1.584   3.691   0.000   5.275
   33        1.581   3.725   0.000   5.306
   34        1.580   3.726   0.000   5.306
   35        1.581   3.729   0.000   5.310
   36        1.581   3.722   0.000   5.303
   37        1.578   3.735   0.000   5.314
   38        1.579   3.676   0.000   5.255
   39        1.575   3.759   0.000   5.334
   40        1.575   3.743   0.000   5.318
   41        1.575   3.752   0.000   5.327
   42        1.579   3.729   0.000   5.307
   43        1.579   3.739   0.000   5.318
   44        1.578   3.663   0.000   5.241
   45        1.582   3.726   0.000   5.307
   46        1.579   3.729   0.000   5.308
   47        1.575   3.746   0.000   5.321
   48        1.577   3.740   0.000   5.317
   49        1.579   3.723   0.000   5.302
   50        1.575   3.745   0.000   5.320
   51        1.579   3.736   0.000   5.315
   52        1.582   3.715   0.000   5.297
   53        1.579   3.722   0.000   5.302
   54        1.580   3.701   0.000   5.281
   55        1.578   3.732   0.000   5.311
   56        1.579   3.723   0.000   5.302
   57        1.584   3.681   0.000   5.265
   58        1.578   3.718   0.000   5.297
   59        1.581   3.710   0.000   5.291
   60        1.578   3.733   0.000   5.311
   61        1.582   3.685   0.000   5.267
   62        1.573   3.752   0.000   5.325
   63        1.577   3.732   0.000   5.308
   64        1.581   3.713   0.000   5.294
   65        1.576   3.732   0.000   5.308
   66        1.581   3.682   0.000   5.263
   67        1.578   3.717   0.000   5.295
   68        1.581   3.725   0.000   5.306
   69        1.575   3.743   0.000   5.318
   70        1.575   3.748   0.000   5.323
   71        1.580   3.710   0.000   5.290
   72        1.580   3.682   0.000   5.262
   73        1.645   3.548   0.000   5.193
   74        1.622   3.595   0.000   5.217
   75        0.637   0.994   0.000   1.631
   76        0.643   0.998   0.000   1.641
   77        0.644   1.005   0.000   1.650
   78        0.634   0.986   0.000   1.620
   79        0.639   0.998   0.000   1.637
   80        0.644   0.996   0.000   1.640
   81        0.637   0.993   0.000   1.630
   82        0.643   1.000   0.000   1.643
   83        0.636   0.989   0.000   1.626
   84        0.638   0.994   0.000   1.632
   85        0.639   0.998   0.000   1.636
   86        0.641   1.006   0.000   1.647
   87        0.643   0.998   0.000   1.641
   88        0.637   0.990   0.000   1.626
   89        0.639   0.995   0.000   1.634
   90        0.637   0.992   0.000   1.629
   91        0.641   0.997   0.000   1.638
   92        0.639   0.997   0.000   1.637
   93        0.644   1.001   0.000   1.645
   94        0.639   0.998   0.000   1.638
   95        0.638   0.994   0.000   1.632
   96        0.643   0.995   0.000   1.638
   97        0.640   0.993   0.000   1.634
   98        0.637   0.985   0.000   1.622
   99        0.639   1.001   0.000   1.640
  100        0.644   0.997   0.000   1.641
  101        0.641   0.993   0.000   1.634
  102        0.644   0.999   0.000   1.644
  103        0.640   0.996   0.000   1.637
  104        0.639   0.998   0.000   1.637
  105        0.641   0.997   0.000   1.637
  106        0.638   0.992   0.000   1.630
  107        0.636   0.989   0.000   1.624
  108        0.350   0.467   0.000   0.817
  109        0.350   0.469   0.000   0.819
  110        0.349   0.468   0.000   0.817
  111        0.089   0.060   9.258   9.407
  112        0.099   0.074   9.259   9.432
  113        0.105   0.074   9.247   9.426
  114        0.943   1.765   0.000   2.707
--------------------------------------------------
tot        140.350 311.159  27.764 479.273
 


 magnetization (x)
 
# of ion       s       p       d       tot
------------------------------------------
    1        0.000   0.000   0.000   0.000
    2       -0.000  -0.000   0.000  -0.000
    3        0.000   0.000   0.000   0.000
    4       -0.000  -0.000   0.000  -0.000
    5        0.000   0.000   0.000   0.000
    6        0.000  -0.000   0.000  -0.000
    7        0.000  -0.000   0.000  -0.000
    8        0.000   0.000   0.000   0.000
    9        0.000   0.000   0.000   0.000
   10        0.000   0.000   0.000   0.000
   11       -0.000  -0.000   0.000  -0.000
   12        0.000   0.000   0.000   0.000
   13       -0.000  -0.000   0.000  -0.000
   14       -0.000  -0.000   0.000  -0.000
   15       -0.000  -0.000   0.000  -0.000
   16       -0.000  -0.000   0.000  -0.000
   17        0.000  -0.000   0.000  -0.000
   18       -0.000  -0.000   0.000  -0.000
   19        0.000   0.000   0.000   0.000
   20       -0.000  -0.000   0.000  -0.000
   21        0.000   0.000   0.000   0.000
   22       -0.000  -0.000   0.000  -0.000
   23        0.000   0.000   0.000   0.000
   24       -0.000  -0.000   0.000  -0.000
   25       -0.000  -0.000   0.000  -0.000
   26        0.000   0.000   0.000   0.000
   27       -0.000  -0.000   0.000  -0.000
   28        0.000   0.000   0.000   0.000
   29        0.000  -0.000   0.000  -0.000
   30        0.000   0.000   0.000   0.000
   31       -0.000  -0.000   0.000  -0.000
   32       -0.000  -0.000   0.000  -0.000
   33       -0.000  -0.000   0.000  -0.000
   34       -0.000  -0.000   0.000  -0.000
   35       -0.000  -0.000   0.000  -0.000
   36       -0.000  -0.000   0.000  -0.000
   37        0.000   0.000   0.000   0.000
   38       -0.000  -0.000   0.000  -0.000
   39        0.000   0.000   0.000   0.000
   40       -0.000  -0.000   0.000  -0.000
   41        0.000   0.000   0.000   0.000
   42       -0.000  -0.000   0.000  -0.000
   43        0.000  -0.000   0.000  -0.000
   44        0.000   0.000   0.000   0.000
   45       -0.000  -0.000   0.000  -0.000
   46        0.000   0.000   0.000   0.000
   47        0.000  -0.000   0.000  -0.000
   48        0.000   0.000   0.000   0.000
   49       -0.000  -0.000   0.000  -0.000
   50       -0.000  -0.000   0.000  -0.000
   51        0.000  -0.000   0.000  -0.000
   52        0.000  -0.000   0.000  -0.000
   53       -0.000  -0.000   0.000  -0.000
   54       -0.000  -0.000   0.000  -0.000
   55        0.000   0.000   0.000   0.000
   56        0.000   0.000   0.000   0.000
   57        0.000   0.000   0.000   0.000
   58        0.000   0.000   0.000   0.000
   59       -0.000   0.000   0.000   0.000
   60        0.000   0.000   0.000   0.000
   61        0.000   0.000   0.000   0.000
   62        0.000   0.000   0.000   0.000
   63        0.000   0.000   0.000   0.000
   64        0.000   0.000   0.000   0.000
   65        0.000   0.000   0.000   0.000
   66       -0.000  -0.000   0.000  -0.000
   67        0.000  -0.000   0.000  -0.000
   68        0.000  -0.000   0.000  -0.000
   69       -0.000  -0.000   0.000  -0.000
   70       -0.000  -0.000   0.000  -0.000
   71       -0.000  -0.000   0.000  -0.000
   72        0.000   0.000   0.000   0.000
   73       -0.000  -0.000   0.000  -0.000
   74       -0.000  -0.000   0.000  -0.000
   75       -0.000  -0.000   0.000  -0.000
   76        0.000   0.000   0.000   0.000
   77       -0.000  -0.000   0.000  -0.000
   78        0.000   0.000   0.000   0.000
   79       -0.000  -0.000   0.000  -0.000
   80        0.000   0.000   0.000   0.000
   81        0.000  -0.000   0.000  -0.000
   82       -0.000  -0.000   0.000  -0.000
   83       -0.000  -0.000   0.000  -0.000
   84        0.000   0.000   0.000   0.000
   85       -0.000  -0.000   0.000  -0.000
   86        0.000   0.000   0.000   0.000
   87       -0.000  -0.000   0.000  -0.000
   88       -0.000  -0.000   0.000  -0.000
   89       -0.000  -0.000   0.000  -0.000
   90       -0.000  -0.000   0.000  -0.000
   91       -0.000  -0.000   0.000  -0.000
   92       -0.000   0.000   0.000  -0.000
   93       -0.000  -0.000   0.000  -0.000
   94       -0.000   0.000   0.000  -0.000
   95       -0.000  -0.000   0.000  -0.000
   96        0.000  -0.000   0.000   0.000
   97        0.000   0.000   0.000   0.000
   98        0.000   0.000   0.000   0.000
   99        0.000   0.000   0.000   0.000
  100        0.000   0.000   0.000   0.000
  101        0.000   0.000   0.000   0.000
  102        0.000   0.000   0.000   0.000
  103        0.000   0.000   0.000   0.000
  104        0.000   0.000   0.000   0.000
  105        0.000   0.000   0.000   0.000
  106        0.000   0.000   0.000   0.000
  107        0.000   0.000   0.000   0.000
  108        0.000   0.000   0.000   0.000
  109       -0.000  -0.000   0.000  -0.000
  110        0.000   0.000   0.000   0.000
  111       -0.000  -0.000   0.000   0.000
  112       -0.000   0.000   0.000   0.000
  113        0.000  -0.000  -0.000  -0.000
  114        0.000   0.000   0.000   0.000
--------------------------------------------------
tot          0.000   0.000   0.000   0.000
 

 total amount of memory used by VASP MPI-rank0   230758. kBytes
=======================================================================

   base      :      30000. kBytes
   nonlr-proj:      31927. kBytes
   fftplans  :      69849. kBytes
   grid      :      59474. kBytes
   one-center:        902. kBytes
   HF        :        259. kBytes
   wavefun   :      38347. kBytes
 
  
  
 General timing and accounting informations for this job:
 ========================================================
  
                  Total CPU time used (sec):    77834.266
                            User time (sec):    70448.655
                          System time (sec):     7385.615
                         Elapsed time (sec):    78078.292
  
                   Maximum memory used (kb):      457000.
                   Average memory used (kb):           0.
  
                          Minor page faults:      4400380
                          Major page faults:           10
                 Voluntary context switches:         1164
