>>>  VASP 5.4.4 with BEEF-vdw and vtst
--------------------------------------------------------
>>>  Job information
     SLURM_JOBID=8708429
     SLURM_JOB_NODELIST=cpn-q07-09-02
     SLURM_NNODES=1
     SLURMTMPDIR=/scratch/8708429
     working directory = /projects/academic/ericwalk/ruthbell/Ads_Ag-SSZ13/SULPHURS/COS-C/PBE
--------------------------------------------------------
>>>  Module information
--------------------------------------------------------
>>>  Running Configuration
NPROCS=16
--------------------------------------------------------
>>>  Job started at Thu Jun 23 12:05:13 EDT 2022
--------------------------------------------------------
 running on   16 total cores
 distrk:  each k-point on   16 cores,    1 groups
 distr:  one band on    4 cores,    4 groups
 using from now: INCAR     
 vasp.5.4.4.18Apr17-6-g9f103f2a35 (build Dec 31 2018 11:41:54) complex          
  
 POSCAR found type information on POSCAR  O  Si Al Ag S  C 
 POSCAR found :  6 types and     114 ions
 scaLAPACK will be used
 LDA part: xc-table for Pade appr. of Perdew
 POSCAR found type information on POSCAR  O  Si Al Ag S  C 
 POSCAR found :  6 types and     114 ions
 POSCAR, INCAR and KPOINTS ok, starting setup
 FFT: planning ...
 WAVECAR not read
 entering main loop
       N       E                     dE             d eps       ncg     rms          rms(c)
DAV:   1     0.440291396163E+04    0.44029E+04   -0.25968E+05  1792   0.103E+03
DAV:   2    -0.418574044590E+03   -0.48215E+04   -0.46330E+04  2104   0.295E+02
DAV:   3    -0.942386954841E+03   -0.52381E+03   -0.52000E+03  2112   0.102E+02
DAV:   4    -0.953040586081E+03   -0.10654E+02   -0.10616E+02  2152   0.160E+01
DAV:   5    -0.953317303792E+03   -0.27672E+00   -0.27639E+00  2184   0.236E+00    0.868E+01
DAV:   6    -0.605672462087E+03    0.34764E+03   -0.71291E+02  2016   0.388E+01    0.281E+01
DAV:   7    -0.694300188287E+03   -0.88628E+02   -0.85061E+01  2040   0.126E+01    0.193E+01
DAV:   8    -0.763426513052E+03   -0.69126E+02   -0.30517E+01  2024   0.798E+00    0.110E+01
DAV:   9    -0.838635338723E+03   -0.75209E+02   -0.56450E+01  2040   0.887E+00    0.491E+00
DAV:  10    -0.851766486693E+03   -0.13131E+02   -0.75245E+00  2088   0.355E+00    0.351E+00
DAV:  11    -0.868311963251E+03   -0.16545E+02   -0.11307E+01  1904   0.395E+00    0.166E+00
DAV:  12    -0.870512306901E+03   -0.22003E+01   -0.11319E+00  1968   0.135E+00    0.917E-01
DAV:  13    -0.871563088656E+03   -0.10508E+01   -0.45192E-01  1920   0.891E-01    0.431E-01
DAV:  14    -0.871728624328E+03   -0.16554E+00   -0.64917E-02  1936   0.349E-01    0.266E-01
DAV:  15    -0.871746432345E+03   -0.17808E-01   -0.14578E-02  2016   0.243E-01    0.139E-01
DAV:  16    -0.871752475253E+03   -0.60429E-02   -0.53818E-03  2024   0.153E-01    0.102E-01
DAV:  17    -0.871756915615E+03   -0.44404E-02   -0.23134E-03  2080   0.112E-01    0.392E-02
DAV:  18    -0.871761731935E+03   -0.48163E-02   -0.16571E-03  2016   0.840E-02    0.476E-02
DAV:  19    -0.871762396471E+03   -0.66454E-03   -0.39292E-04  2080   0.449E-02    0.286E-02
DAV:  20    -0.871762898309E+03   -0.50184E-03   -0.28899E-04  2048   0.360E-02    0.128E-02
DAV:  21    -0.871763346871E+03   -0.44856E-03   -0.12510E-04  1928   0.244E-02    0.130E-02
DAV:  22    -0.871763538703E+03   -0.19183E-03   -0.73938E-05  1792   0.187E-02    0.515E-03
DAV:  23    -0.871763625462E+03   -0.86759E-04   -0.40876E-05  1800   0.132E-02    0.352E-03
DAV:  24    -0.871763668554E+03   -0.43092E-04   -0.16039E-05  1632   0.807E-03    0.298E-03
DAV:  25    -0.871763687903E+03   -0.19349E-04   -0.52486E-06  1520   0.423E-03    0.168E-03
DAV:  26    -0.871763700408E+03   -0.12505E-04   -0.35537E-06  1424   0.310E-03    0.144E-03
DAV:  27    -0.871763703856E+03   -0.34479E-05   -0.19658E-06  1480   0.217E-03
   1 F= -.87176370E+03 E0= -.87176370E+03  d E =-.871764E+03  mag=     0.0001
 BRION: g(F)=  0.302E+01 g(S)=  0.000E+00
 bond charge predicted
       N       E                     dE             d eps       ncg     rms          rms(c)
DAV:   1    -0.862661427014E+03    0.91023E+01   -0.58156E+02  1760   0.324E+01    0.660E+00
DAV:   2    -0.864676639392E+03   -0.20152E+01   -0.31055E+01  2064   0.525E+00    0.525E+00
DAV:   3    -0.864129833486E+03    0.54681E+00   -0.86988E-01  2208   0.144E+00    0.273E+00
DAV:   4    -0.863892997478E+03    0.23684E+00   -0.44844E-01  2256   0.127E+00    0.583E-01
DAV:   5    -0.863882358826E+03    0.10639E-01   -0.93962E-02  2304   0.656E-01    0.377E-01
DAV:   6    -0.863876538336E+03    0.58205E-02   -0.18032E-02  2208   0.335E-01    0.221E-01
DAV:   7    -0.863872141003E+03    0.43973E-02   -0.30233E-03  2384   0.269E-01    0.959E-02
DAV:   8    -0.863870406707E+03    0.17343E-02   -0.36081E-03  2320   0.299E-01    0.746E-02
DAV:   9    -0.863871292831E+03   -0.88612E-03   -0.50502E-03  2032   0.183E-01    0.750E-02
DAV:  10    -0.863871625640E+03   -0.33281E-03   -0.95650E-04  2064   0.694E-02    0.623E-02
DAV:  11    -0.863871781338E+03   -0.15570E-03   -0.47649E-04  2016   0.454E-02    0.236E-02
DAV:  12    -0.863872033139E+03   -0.25180E-03   -0.10698E-04  2016   0.255E-02    0.190E-02
DAV:  13    -0.863872095772E+03   -0.62633E-04   -0.44277E-05  1896   0.162E-02    0.112E-02
DAV:  14    -0.863872150896E+03   -0.55124E-04   -0.29970E-05  1760   0.122E-02    0.597E-03
DAV:  15    -0.863872209340E+03   -0.58444E-04   -0.87438E-06  1440   0.731E-03    0.474E-03
DAV:  16    -0.863872225651E+03   -0.16311E-04   -0.78606E-06  1496   0.541E-03    0.279E-03
DAV:  17    -0.863872229861E+03   -0.42098E-05   -0.62146E-06  1544   0.464E-03
   2 F= -.86387223E+03 E0= -.86387223E+03  d E =0.789147E+01  mag=    -0.0000
 BRION: g(F)=  0.635E+03 g(S)=  0.000E+00 retain N=  1 mean eig= 0.05
 eig:   0.052
 bond charge predicted
       N       E                     dE             d eps       ncg     rms          rms(c)
DAV:   1    -0.872848137655E+03   -0.89759E+01   -0.34901E+02  1728   0.136E+01    0.748E+00
DAV:   2    -0.872709288330E+03    0.13885E+00   -0.12552E+01  1896   0.378E+00    0.431E+00
DAV:   3    -0.872266291606E+03    0.44300E+00   -0.10214E+00  2288   0.161E+00    0.157E+00
DAV:   4    -0.872225241427E+03    0.41050E-01   -0.27602E-01  2192   0.759E-01    0.529E-01
DAV:   5    -0.872218173321E+03    0.70681E-02   -0.23794E-02  2176   0.300E-01    0.255E-01
DAV:   6    -0.872215541908E+03    0.26314E-02   -0.47707E-03  2112   0.222E-01    0.919E-02
DAV:   7    -0.872214820252E+03    0.72166E-03   -0.21562E-03  2224   0.180E-01    0.637E-02
DAV:   8    -0.872214985450E+03   -0.16520E-03   -0.17484E-03  2176   0.147E-01    0.524E-02
DAV:   9    -0.872215127796E+03   -0.14235E-03   -0.73714E-04  2080   0.640E-02    0.349E-02
DAV:  10    -0.872215301113E+03   -0.17332E-03   -0.21477E-04  2176   0.427E-02    0.206E-02
DAV:  11    -0.872215430255E+03   -0.12914E-03   -0.68571E-05  1824   0.306E-02    0.129E-02
DAV:  12    -0.872215595241E+03   -0.16499E-03   -0.22316E-04  1864   0.364E-02    0.151E-02
DAV:  13    -0.872215573841E+03    0.21400E-04   -0.17396E-04  1912   0.254E-02    0.115E-02
DAV:  14    -0.872215567900E+03    0.59411E-05   -0.29324E-05  1624   0.105E-02
   3 F= -.87221557E+03 E0= -.87221557E+03  d E =-.834334E+01  mag=     0.0000
 BRION: g(F)=  0.884E+01 g(S)=  0.000E+00 retain N=  1 mean eig= 0.04
 eig:   0.043
 bond charge predicted
       N       E                     dE             d eps       ncg     rms          rms(c)
DAV:   1    -0.868813369903E+03    0.34022E+01   -0.44723E+02  1728   0.318E+01    0.595E+00
DAV:   2    -0.869950570083E+03   -0.11372E+01   -0.22381E+01  2128   0.641E+00    0.385E+00
DAV:   3    -0.869668473191E+03    0.28210E+00   -0.10846E+00  2144   0.172E+00    0.239E+00
DAV:   4    -0.869499951346E+03    0.16852E+00   -0.49746E-01  2160   0.162E+00    0.779E-01
DAV:   5    -0.869490254512E+03    0.96968E-02   -0.15902E-01  2176   0.821E-01    0.427E-01
DAV:   6    -0.869484822652E+03    0.54319E-02   -0.22737E-02  2096   0.318E-01    0.254E-01
DAV:   7    -0.869480506387E+03    0.43163E-02   -0.24759E-03  2096   0.198E-01    0.126E-01
DAV:   8    -0.869477702215E+03    0.28042E-02   -0.29668E-03  2248   0.268E-01    0.784E-02
DAV:   9    -0.869477354635E+03    0.34758E-03   -0.32390E-03  2224   0.214E-01    0.484E-02
DAV:  10    -0.869477831759E+03   -0.47712E-03   -0.24571E-03  2000   0.105E-01    0.637E-02
DAV:  11    -0.869477846665E+03   -0.14906E-04   -0.25186E-04  2072   0.315E-02    0.378E-02
DAV:  12    -0.869478127299E+03   -0.28063E-03   -0.35500E-04  1984   0.414E-02    0.215E-02
DAV:  13    -0.869478139246E+03   -0.11947E-04   -0.92903E-05  1944   0.230E-02    0.171E-02
DAV:  14    -0.869478204050E+03   -0.64804E-04   -0.10682E-04  1832   0.226E-02    0.712E-03
DAV:  15    -0.869478228581E+03   -0.24531E-04   -0.86928E-05  1768   0.180E-02    0.734E-03
DAV:  16    -0.869478244459E+03   -0.15879E-04   -0.65501E-05  1648   0.141E-02    0.547E-03
DAV:  17    -0.869478232739E+03    0.11721E-04   -0.33609E-05  1648   0.991E-03    0.233E-03
DAV:  18    -0.869478232838E+03   -0.99615E-07   -0.63925E-06  1464   0.465E-03
   4 F= -.86947823E+03 E0= -.86947823E+03  d E =0.273734E+01  mag=    -0.0000
 BRION: g(F)=  0.222E+02 g(S)=  0.000E+00 retain N=  2 mean eig= 0.12
 eig:   0.053  0.180
 bond charge predicted
       N       E                     dE             d eps       ncg     rms          rms(c)
DAV:   1    -0.872262600828E+03   -0.27844E+01   -0.30486E+02  1728   0.280E+01    0.360E+00
DAV:   2    -0.872720241093E+03   -0.45764E+00   -0.10158E+01  2128   0.503E+00    0.255E+00
DAV:   3    -0.872511780282E+03    0.20846E+00   -0.38968E-01  2160   0.143E+00    0.167E+00
DAV:   4    -0.872381158538E+03    0.13062E+00   -0.23341E-01  2112   0.123E+00    0.539E-01
DAV:   5    -0.872368536593E+03    0.12622E-01   -0.11148E-01  2224   0.826E-01    0.286E-01
DAV:   6    -0.872365124823E+03    0.34118E-02   -0.37785E-02  2160   0.438E-01    0.262E-01
DAV:   7    -0.872361214161E+03    0.39107E-02   -0.53121E-03  2112   0.224E-01    0.117E-01
DAV:   8    -0.872359047008E+03    0.21672E-02   -0.27547E-03  2272   0.289E-01    0.677E-02
DAV:   9    -0.872359323774E+03   -0.27677E-03   -0.30062E-03  2208   0.158E-01    0.595E-02
DAV:  10    -0.872359805308E+03   -0.48153E-03   -0.15476E-03  2000   0.742E-02    0.442E-02
DAV:  11    -0.872360103737E+03   -0.29843E-03   -0.23067E-04  2096   0.509E-02    0.189E-02
DAV:  12    -0.872360377023E+03   -0.27329E-03   -0.10012E-04  1936   0.281E-02    0.111E-02
DAV:  13    -0.872360497656E+03   -0.12063E-03   -0.71213E-05  2048   0.183E-02    0.869E-03
DAV:  14    -0.872360537337E+03   -0.39681E-04   -0.12455E-05  1584   0.820E-03    0.589E-03
DAV:  15    -0.872360575284E+03   -0.37947E-04   -0.18295E-05  1560   0.810E-03    0.319E-03
DAV:  16    -0.872360580949E+03   -0.56645E-05   -0.14363E-05  1632   0.653E-03
   5 F= -.87236058E+03 E0= -.87236058E+03  d E =-.288235E+01  mag=    -0.0000
 BRION: g(F)=  0.444E+01 g(S)=  0.000E+00 retain N=  3 mean eig= 1.89
 eig:   5.372  0.048  0.242
 bond charge predicted
       N       E                     dE             d eps       ncg     rms          rms(c)
DAV:   1    -0.873006890092E+03   -0.64631E+00   -0.31111E+01  1728   0.825E+00    0.144E+00
DAV:   2    -0.873042213674E+03   -0.35324E-01   -0.10540E+00  2112   0.157E+00    0.871E-01
DAV:   3    -0.873024566953E+03    0.17647E-01   -0.50865E-02  2104   0.448E-01    0.550E-01
DAV:   4    -0.873014424091E+03    0.10143E-01   -0.24982E-02  2112   0.352E-01    0.181E-01
DAV:   5    -0.873013297105E+03    0.11270E-02   -0.77424E-03  2288   0.236E-01    0.875E-02
DAV:   6    -0.873013100389E+03    0.19672E-03   -0.29806E-03  2096   0.107E-01    0.775E-02
DAV:   7    -0.873012709890E+03    0.39050E-03   -0.38006E-04  2128   0.597E-02    0.311E-02
DAV:   8    -0.873012504315E+03    0.20558E-03   -0.23279E-04  2192   0.806E-02    0.309E-02
DAV:   9    -0.873012499123E+03    0.51925E-05   -0.29932E-04  2288   0.672E-02    0.138E-02
DAV:  10    -0.873012555672E+03   -0.56549E-04   -0.26339E-04  1952   0.308E-02    0.233E-02
DAV:  11    -0.873012551345E+03    0.43264E-05   -0.47749E-05  1880   0.142E-02
   6 F= -.87301255E+03 E0= -.87301255E+03  d E =-.651970E+00  mag=    -0.0000
 BRION: g(F)=  0.110E+01 g(S)=  0.000E+00 retain N=  2 mean eig= 1.06
 eig:   0.150  1.966
 bond charge predicted
       N       E                     dE             d eps       ncg     rms          rms(c)
DAV:   1    -0.870343117564E+03    0.26694E+01   -0.21004E+02  1728   0.169E+01    0.376E+00
DAV:   2    -0.870960491785E+03   -0.61737E+00   -0.93666E+00  2000   0.272E+00    0.285E+00
DAV:   3    -0.870797096118E+03    0.16340E+00   -0.29806E-01  2192   0.763E-01    0.142E+00
DAV:   4    -0.870740773082E+03    0.56323E-01   -0.10512E-01  2272   0.604E-01    0.415E-01
DAV:   5    -0.870738635191E+03    0.21379E-02   -0.27233E-02  2176   0.293E-01    0.208E-01
DAV:   6    -0.870736913544E+03    0.17216E-02   -0.40383E-03  2304   0.190E-01    0.874E-02
DAV:   7    -0.870736112767E+03    0.80078E-03   -0.77070E-04  2272   0.138E-01    0.567E-02
DAV:   8    -0.870735879648E+03    0.23312E-03   -0.10991E-03  2120   0.132E-01    0.303E-02
DAV:   9    -0.870735911178E+03   -0.31530E-04   -0.11372E-03  1864   0.706E-02    0.332E-02
DAV:  10    -0.870735834397E+03    0.76781E-04   -0.32314E-04  1896   0.407E-02    0.128E-02
DAV:  11    -0.870735898911E+03   -0.64514E-04   -0.15240E-04  1776   0.438E-02    0.865E-03
DAV:  12    -0.870735929529E+03   -0.30617E-04   -0.28518E-04  1672   0.289E-02    0.588E-03
DAV:  13    -0.870735870720E+03    0.58809E-04   -0.14121E-04  1688   0.225E-02    0.315E-03
DAV:  14    -0.870735869513E+03    0.12066E-05   -0.91194E-06  1576   0.629E-03
   7 F= -.87073587E+03 E0= -.87073587E+03  d E =0.227668E+01  mag=    -0.0000
 BRION: g(F)=  0.105E+03 g(S)=  0.000E+00 retain N=  3 mean eig= 0.72
 eig:   1.975  0.160  0.036
 bond charge predicted
       N       E                     dE             d eps       ncg     rms          rms(c)
DAV:   1    -0.873222960617E+03   -0.24871E+01   -0.12407E+02  1744   0.854E+00    0.395E+00
DAV:   2    -0.873257089494E+03   -0.34129E-01   -0.42883E+00  1904   0.186E+00    0.239E+00
DAV:   3    -0.873113150195E+03    0.14394E+00   -0.26302E-01  2208   0.800E-01    0.868E-01
DAV:   4    -0.873100129554E+03    0.13021E-01   -0.89097E-02  2192   0.422E-01    0.257E-01
DAV:   5    -0.873098702398E+03    0.14272E-02   -0.75269E-03  2064   0.154E-01    0.138E-01
DAV:   6    -0.873097797405E+03    0.90499E-03   -0.13663E-03  2208   0.121E-01    0.479E-02
DAV:   7    -0.873097567877E+03    0.22953E-03   -0.53659E-04  2112   0.914E-02    0.347E-02
DAV:   8    -0.873097572748E+03   -0.48714E-05   -0.46791E-04  2144   0.101E-01    0.225E-02
DAV:   9    -0.873097656495E+03   -0.83747E-04   -0.45681E-04  2064   0.414E-02    0.258E-02
DAV:  10    -0.873097669339E+03   -0.12844E-04   -0.52130E-05  1968   0.169E-02    0.128E-02
DAV:  11    -0.873097710967E+03   -0.41628E-04   -0.15778E-05  1472   0.202E-02    0.613E-03
DAV:  12    -0.873097751845E+03   -0.40878E-04   -0.46461E-05  1728   0.143E-02    0.563E-03
DAV:  13    -0.873097741630E+03    0.10215E-04   -0.21836E-05  1616   0.932E-03    0.411E-03
DAV:  14    -0.873097746792E+03   -0.51627E-05   -0.59575E-06  1376   0.525E-03
   8 F= -.87309775E+03 E0= -.87309775E+03  d E =-.236188E+01  mag=     0.0000
 BRION: g(F)=  0.353E+01 g(S)=  0.000E+00 retain N=  1 mean eig= 0.06
 eig:   0.061
 bond charge predicted
       N       E                     dE             d eps       ncg     rms          rms(c)
DAV:   1    -0.871671713846E+03    0.14260E+01   -0.20845E+02  1728   0.219E+01    0.406E+00
DAV:   2    -0.872010294399E+03   -0.33858E+00   -0.89134E+00  2128   0.425E+00    0.251E+00
DAV:   3    -0.871882128201E+03    0.12817E+00   -0.43553E-01  2160   0.121E+00    0.155E+00
DAV:   4    -0.871796075459E+03    0.86053E-01   -0.20971E-01  2144   0.107E+00    0.511E-01
DAV:   5    -0.871788746435E+03    0.73290E-02   -0.73885E-02  2176   0.641E-01    0.278E-01
DAV:   6    -0.871786321061E+03    0.24254E-02   -0.15980E-02  2112   0.265E-01    0.202E-01
DAV:   7    -0.871783233829E+03    0.30872E-02   -0.17996E-03  2128   0.171E-01    0.907E-02
DAV:   8    -0.871781661740E+03    0.15721E-02   -0.19986E-03  2168   0.226E-01    0.725E-02
DAV:   9    -0.871781736023E+03   -0.74283E-04   -0.24385E-03  2256   0.188E-01    0.415E-02
DAV:  10    -0.871782097254E+03   -0.36123E-03   -0.18861E-03  2080   0.803E-02    0.612E-02
DAV:  11    -0.871782088625E+03    0.86288E-05   -0.14365E-04  2096   0.243E-02    0.330E-02
DAV:  12    -0.871782268882E+03   -0.18026E-03   -0.23308E-04  2112   0.381E-02    0.188E-02
DAV:  13    -0.871782308825E+03   -0.39943E-04   -0.34978E-05  1936   0.178E-02    0.153E-02
DAV:  14    -0.871782349384E+03   -0.40559E-04   -0.71744E-05  1904   0.196E-02    0.871E-03
DAV:  15    -0.871782373293E+03   -0.23909E-04   -0.20243E-05  1608   0.110E-02    0.536E-03
DAV:  16    -0.871782394163E+03   -0.20870E-04   -0.18325E-05  1584   0.913E-03    0.239E-03
DAV:  17    -0.871782398858E+03   -0.46948E-05   -0.12413E-05  1600   0.722E-03
   9 F= -.87178240E+03 E0= -.87178240E+03  d E =0.131535E+01  mag=     0.0000
 BRION: g(F)=  0.113E+02 g(S)=  0.000E+00 retain N=  2 mean eig= 0.10
 eig:   0.100  0.100
 bond charge predicted
       N       E                     dE             d eps       ncg     rms          rms(c)
DAV:   1    -0.873243813157E+03   -0.14614E+01   -0.13032E+02  1728   0.185E+01    0.247E+00
DAV:   2    -0.873406809742E+03   -0.16300E+00   -0.41825E+00  2160   0.337E+00    0.170E+00
DAV:   3    -0.873312093148E+03    0.94717E-01   -0.17038E-01  2128   0.985E-01    0.110E+00
DAV:   4    -0.873243421459E+03    0.68672E-01   -0.10587E-01  2128   0.903E-01    0.341E-01
DAV:   5    -0.873235498051E+03    0.79234E-02   -0.61033E-02  2256   0.625E-01    0.234E-01
DAV:   6    -0.873233798383E+03    0.16997E-02   -0.20256E-02  2096   0.281E-01    0.202E-01
DAV:   7    -0.873229684804E+03    0.41136E-02   -0.54971E-03  2176   0.248E-01    0.932E-02
DAV:   8    -0.873228842544E+03    0.84226E-03   -0.18448E-03  2208   0.204E-01    0.735E-02
DAV:   9    -0.873229169656E+03   -0.32711E-03   -0.25399E-03  2112   0.140E-01    0.469E-02
DAV:  10    -0.873229433400E+03   -0.26374E-03   -0.90482E-04  2064   0.515E-02    0.438E-02
DAV:  11    -0.873229571081E+03   -0.13768E-03   -0.16979E-04  2128   0.369E-02    0.161E-02
DAV:  12    -0.873229709815E+03   -0.13873E-03   -0.10635E-04  2080   0.274E-02    0.151E-02
DAV:  13    -0.873229765214E+03   -0.55399E-04   -0.10053E-04  2016   0.229E-02    0.876E-03
DAV:  14    -0.873229758438E+03    0.67769E-05   -0.40756E-05  1688   0.141E-02
  10 F= -.87322976E+03 E0= -.87322976E+03  d E =-.144736E+01  mag=     0.0000
 BRION: g(F)=  0.161E+01 g(S)=  0.000E+00 retain N=  2 mean eig= 2.82
 eig:   0.223  5.426
 bond charge predicted
       N       E                     dE             d eps       ncg     rms          rms(c)
DAV:   1    -0.872009626795E+03    0.12201E+01   -0.10875E+02  1728   0.117E+01    0.269E+00
DAV:   2    -0.872284841294E+03   -0.27521E+00   -0.44331E+00  2016   0.192E+00    0.194E+00
DAV:   3    -0.872200690811E+03    0.84150E-01   -0.15025E-01  2112   0.589E-01    0.950E-01
DAV:   4    -0.872175677856E+03    0.25013E-01   -0.50303E-02  2096   0.415E-01    0.290E-01
DAV:   5    -0.872174581321E+03    0.10965E-02   -0.13803E-02  2120   0.214E-01    0.148E-01
DAV:   6    -0.872173758937E+03    0.82238E-03   -0.19087E-03  2216   0.123E-01    0.642E-02
DAV:   7    -0.872173364736E+03    0.39420E-03   -0.34530E-04  2160   0.804E-02    0.409E-02
DAV:   8    -0.872173331960E+03    0.32776E-04   -0.53036E-04  1936   0.884E-02    0.203E-02
DAV:   9    -0.872173357473E+03   -0.25513E-04   -0.54166E-04  1896   0.477E-02    0.251E-02
DAV:  10    -0.872173335839E+03    0.21634E-04   -0.80731E-05  1928   0.190E-02    0.124E-02
DAV:  11    -0.872173417675E+03   -0.81836E-04   -0.69781E-05  1872   0.232E-02    0.858E-03
DAV:  12    -0.872173419185E+03   -0.15103E-05   -0.91095E-05  1704   0.183E-02
  11 F= -.87217342E+03 E0= -.87217342E+03  d E =0.105634E+01  mag=    -0.0000
 BRION: g(F)=  0.451E+02 g(S)=  0.000E+00 retain N=  3 mean eig= 2.16
 eig:   6.211  0.128  0.128
 bond charge predicted
       N       E                     dE             d eps       ncg     rms          rms(c)
DAV:   1    -0.873474772529E+03   -0.13014E+01   -0.70430E+01  1728   0.677E+00    0.279E+00
DAV:   2    -0.873543068824E+03   -0.68296E-01   -0.25652E+00  1968   0.137E+00    0.158E+00
DAV:   3    -0.873482227015E+03    0.60842E-01   -0.11128E-01  2272   0.513E-01    0.675E-01
DAV:   4    -0.873474516291E+03    0.77107E-02   -0.41159E-02  2128   0.289E-01    0.208E-01
DAV:   5    -0.873473782482E+03    0.73381E-03   -0.49285E-03  2064   0.128E-01    0.105E-01
DAV:   6    -0.873473457604E+03    0.32488E-03   -0.64671E-04  1960   0.690E-02    0.382E-02
DAV:   7    -0.873473343686E+03    0.11392E-03   -0.28607E-04  1912   0.636E-02    0.230E-02
DAV:   8    -0.873473424141E+03   -0.80456E-04   -0.42766E-04  1912   0.559E-02    0.158E-02
DAV:   9    -0.873473399077E+03    0.25064E-04   -0.33031E-04  1912   0.449E-02    0.109E-02
DAV:  10    -0.873473483340E+03   -0.84263E-04   -0.26498E-04  1784   0.343E-02    0.554E-03
DAV:  11    -0.873473443516E+03    0.39825E-04   -0.24909E-04  1720   0.310E-02    0.406E-03
DAV:  12    -0.873473418865E+03    0.24651E-04   -0.71190E-05  1728   0.160E-02    0.277E-03
DAV:  13    -0.873473425037E+03   -0.61725E-05   -0.77825E-06  1464   0.602E-03
  12 F= -.87347343E+03 E0= -.87347343E+03  d E =-.130001E+01  mag=     0.0000
 BRION: g(F)=  0.191E+00 g(S)=  0.000E+00 retain N=  1 mean eig= 0.07
 eig:   0.073
 bond charge predicted
       N       E                     dE             d eps       ncg     rms          rms(c)
DAV:   1    -0.873450567026E+03    0.22852E-01   -0.18180E+01  1728   0.512E+00    0.128E+00
DAV:   2    -0.873475499367E+03   -0.24932E-01   -0.65971E-01  2000   0.988E-01    0.674E-01
DAV:   3    -0.873469328214E+03    0.61712E-02   -0.26195E-02  2080   0.229E-01    0.400E-01
DAV:   4    -0.873467079833E+03    0.22484E-02   -0.14412E-02  2080   0.172E-01    0.122E-01
DAV:   5    -0.873466979812E+03    0.10002E-03   -0.14494E-03  2144   0.757E-02    0.480E-02
DAV:   6    -0.873466977059E+03    0.27538E-05   -0.28036E-04  2080   0.301E-02    0.259E-02
DAV:   7    -0.873466968601E+03    0.84580E-05   -0.38187E-05  1840   0.136E-02
  13 F= -.87346697E+03 E0= -.87346697E+03  d E =0.645644E-02  mag=     0.0000
 BRION: g(F)=  0.137E+01 g(S)=  0.000E+00 retain N=  2 mean eig= 0.13
 eig:   0.126  0.126
 bond charge predicted
       N       E                     dE             d eps       ncg     rms          rms(c)
DAV:   1    -0.873587782247E+03   -0.12081E+00   -0.51470E+00  1728   0.244E+00    0.934E-01
DAV:   2    -0.873583960459E+03    0.38218E-02   -0.23433E-01  2048   0.578E-01    0.474E-01
DAV:   3    -0.873580758877E+03    0.32016E-02   -0.13552E-02  2080   0.151E-01    0.275E-01
DAV:   4    -0.873579537917E+03    0.12210E-02   -0.69220E-03  2064   0.114E-01    0.798E-02
DAV:   5    -0.873579458449E+03    0.79468E-04   -0.65945E-04  2144   0.485E-02    0.340E-02
DAV:   6    -0.873579452009E+03    0.64397E-05   -0.10857E-04  2016   0.177E-02    0.161E-02
DAV:   7    -0.873579445300E+03    0.67086E-05   -0.20684E-05  1696   0.111E-02
  14 F= -.87357945E+03 E0= -.87357945E+03  d E =-.112477E+00  mag=    -0.0000
 BRION: g(F)=  0.745E-01 g(S)=  0.000E+00 retain N=  1 mean eig= 0.18
 eig:   0.178
 bond charge predicted
       N       E                     dE             d eps       ncg     rms          rms(c)
DAV:   1    -0.873590574807E+03   -0.11123E-01   -0.10123E+01  1728   0.403E+00    0.600E-01
DAV:   2    -0.873616227291E+03   -0.25652E-01   -0.31064E-01  1968   0.619E-01    0.381E-01
DAV:   3    -0.873613780146E+03    0.24471E-02   -0.48460E-03  2128   0.110E-01    0.225E-01
DAV:   4    -0.873612734244E+03    0.10459E-02   -0.33296E-03  2080   0.103E-01    0.510E-02
DAV:   5    -0.873612764215E+03   -0.29971E-04   -0.83314E-04  2096   0.469E-02    0.347E-02
DAV:   6    -0.873612742753E+03    0.21461E-04   -0.13802E-04  2240   0.268E-02    0.188E-02
DAV:   7    -0.873612734903E+03    0.78502E-05   -0.19018E-05  1648   0.118E-02
  15 F= -.87361273E+03 E0= -.87361273E+03  d E =-.332896E-01  mag=     0.0000
 BRION: g(F)=  0.541E+00 g(S)=  0.000E+00 retain N=  2 mean eig= 0.18
 eig:   0.179  0.179
 bond charge predicted
       N       E                     dE             d eps       ncg     rms          rms(c)
DAV:   1    -0.873644693999E+03   -0.31951E-01   -0.20693E+00  1744   0.156E+00    0.380E-01
DAV:   2    -0.873648464702E+03   -0.37707E-02   -0.72641E-02  1968   0.258E-01    0.257E-01
DAV:   3    -0.873646887138E+03    0.15776E-02   -0.26695E-03  2192   0.854E-02    0.112E-01
DAV:   4    -0.873646605587E+03    0.28155E-03   -0.10046E-03  2016   0.544E-02    0.310E-02
DAV:   5    -0.873646603018E+03    0.25690E-05   -0.17312E-04  2112   0.224E-02    0.196E-02
DAV:   6    -0.873646589434E+03    0.13584E-04   -0.23101E-05  1680   0.142E-02    0.832E-03
DAV:   7    -0.873646582689E+03    0.67447E-05   -0.67161E-06  1536   0.104E-02
  16 F= -.87364658E+03 E0= -.87364658E+03  d E =-.338478E-01  mag=    -0.0000
 BRION: g(F)=  0.600E-01 g(S)=  0.000E+00 retain N=  1 mean eig= 0.12
 eig:   0.115
 bond charge predicted
       N       E                     dE             d eps       ncg     rms          rms(c)
DAV:   1    -0.873677216611E+03   -0.30627E-01   -0.62050E+00  1728   0.329E+00    0.418E-01
DAV:   2    -0.873693567424E+03   -0.16351E-01   -0.18626E-01  2016   0.505E-01    0.258E-01
DAV:   3    -0.873692664343E+03    0.90308E-03   -0.25871E-03  2144   0.885E-02    0.166E-01
DAV:   4    -0.873692082971E+03    0.58137E-03   -0.23061E-03  2080   0.984E-02    0.460E-02
DAV:   5    -0.873692090674E+03   -0.77039E-05   -0.65086E-04  2088   0.437E-02    0.375E-02
DAV:   6    -0.873692067697E+03    0.22977E-04   -0.15897E-04  2024   0.259E-02    0.157E-02
DAV:   7    -0.873692060551E+03    0.71460E-05   -0.17085E-05  1616   0.115E-02
  17 F= -.87369206E+03 E0= -.87369206E+03  d E =-.454779E-01  mag=    -0.0000
 BRION: g(F)=  0.776E-01 g(S)=  0.000E+00 retain N=  2 mean eig= 0.15
 eig:   0.154  0.154
 bond charge predicted
       N       E                     dE             d eps       ncg     rms          rms(c)
DAV:   1    -0.873707186111E+03   -0.15118E-01   -0.94111E-01  1728   0.147E+00    0.177E-01
DAV:   2    -0.873709021607E+03   -0.18355E-02   -0.28753E-02  2128   0.247E-01    0.129E-01
DAV:   3    -0.873708598879E+03    0.42273E-03   -0.74026E-04  2144   0.593E-02    0.837E-02
DAV:   4    -0.873708292695E+03    0.30618E-03   -0.61362E-04  2056   0.612E-02    0.254E-02
DAV:   5    -0.873708274145E+03    0.18551E-04   -0.26503E-04  2168   0.355E-02    0.178E-02
DAV:   6    -0.873708263667E+03    0.10477E-04   -0.84478E-05  2008   0.199E-02    0.122E-02
DAV:   7    -0.873708253817E+03    0.98496E-05   -0.10353E-05  1480   0.122E-02
  18 F= -.87370825E+03 E0= -.87370825E+03  d E =-.161933E-01  mag=    -0.0000
 BRION: g(F)=  0.494E-01 g(S)=  0.000E+00 retain N=  1 mean eig= 0.21
 eig:   0.211
 bond charge predicted
       N       E                     dE             d eps       ncg     rms          rms(c)
DAV:   1    -0.873735225036E+03   -0.26961E-01   -0.43590E+00  1728   0.274E+00    0.344E-01
DAV:   2    -0.873746485513E+03   -0.11260E-01   -0.12736E-01  2016   0.405E-01    0.201E-01
DAV:   3    -0.873745978607E+03    0.50691E-03   -0.17165E-03  2120   0.639E-02    0.128E-01
DAV:   4    -0.873745651748E+03    0.32686E-03   -0.12061E-03  1984   0.656E-02    0.284E-02
DAV:   5    -0.873745658319E+03   -0.65719E-05   -0.36257E-04  1904   0.296E-02    0.243E-02
DAV:   6    -0.873745648922E+03    0.93978E-05   -0.46407E-05  1760   0.139E-02
  19 F= -.87374565E+03 E0= -.87374565E+03  d E =-.373951E-01  mag=     0.0000
 BRION: g(F)=  0.456E-01 g(S)=  0.000E+00 retain N=  2 mean eig= 0.98
 eig:   0.139  1.824
 bond charge predicted
       N       E                     dE             d eps       ncg     rms          rms(c)
DAV:   1    -0.873760941753E+03   -0.15283E-01   -0.12865E+00  1728   0.149E+00    0.220E-01
DAV:   2    -0.873764312777E+03   -0.33710E-02   -0.41163E-02  2032   0.238E-01    0.151E-01
DAV:   3    -0.873764041930E+03    0.27085E-03   -0.64310E-04  2112   0.447E-02    0.954E-02
DAV:   4    -0.873763896701E+03    0.14523E-03   -0.83127E-04  2048   0.539E-02    0.275E-02
DAV:   5    -0.873763884799E+03    0.11902E-04   -0.14366E-04  1960   0.242E-02    0.163E-02
DAV:   6    -0.873763884401E+03    0.39826E-06   -0.48907E-05  1824   0.139E-02
  20 F= -.87376388E+03 E0= -.87376388E+03  d E =-.182355E-01  mag=    -0.0000
 BRION: g(F)=  0.621E-01 g(S)=  0.000E+00 retain N=  3 mean eig= 2.36
 eig:   6.790  0.102  0.191
 bond charge predicted
       N       E                     dE             d eps       ncg     rms          rms(c)
DAV:   1    -0.873783368597E+03   -0.19484E-01   -0.33405E+00  1728   0.230E+00    0.337E-01
DAV:   2    -0.873791754748E+03   -0.83862E-02   -0.10138E-01  2000   0.349E-01    0.203E-01
DAV:   3    -0.873791162039E+03    0.59271E-03   -0.15208E-03  2128   0.589E-02    0.124E-01
DAV:   4    -0.873790852051E+03    0.30999E-03   -0.13106E-03  2128   0.626E-02    0.277E-02
DAV:   5    -0.873790857338E+03   -0.52877E-05   -0.27533E-04  1952   0.261E-02    0.205E-02
DAV:   6    -0.873790852560E+03    0.47778E-05   -0.43528E-05  1824   0.131E-02
  21 F= -.87379085E+03 E0= -.87379085E+03  d E =-.269682E-01  mag=    -0.0000
 BRION: g(F)=  0.826E-01 g(S)=  0.000E+00 retain N=  2 mean eig= 1.28
 eig:   0.085  2.467
 bond charge predicted
       N       E                     dE             d eps       ncg     rms          rms(c)
DAV:   1    -0.873800095887E+03   -0.92385E-02   -0.43755E-01  1728   0.947E-01    0.154E-01
DAV:   2    -0.873801007652E+03   -0.91176E-03   -0.15609E-02  2096   0.169E-01    0.121E-01
DAV:   3    -0.873800740359E+03    0.26729E-03   -0.41704E-04  2144   0.409E-02    0.733E-02
DAV:   4    -0.873800574133E+03    0.16623E-03   -0.49903E-04  2064   0.484E-02    0.208E-02
DAV:   5    -0.873800565755E+03    0.83786E-05   -0.12179E-04  2112   0.230E-02    0.140E-02
DAV:   6    -0.873800559598E+03    0.61568E-05   -0.39722E-05  2016   0.134E-02
  22 F= -.87380056E+03 E0= -.87380056E+03  d E =-.970704E-02  mag=    -0.0000
 BRION: g(F)=  0.366E-01 g(S)=  0.000E+00 retain N=  2 mean eig= 3.87
 eig:   0.096  7.643
 bond charge predicted
       N       E                     dE             d eps       ncg     rms          rms(c)
DAV:   1    -0.873818120266E+03   -0.17555E-01   -0.24652E+00  1728   0.211E+00    0.266E-01
DAV:   2    -0.873824322661E+03   -0.62024E-02   -0.72085E-02  2048   0.321E-01    0.157E-01
DAV:   3    -0.873823954775E+03    0.36789E-03   -0.11001E-03  2136   0.617E-02    0.991E-02
DAV:   4    -0.873823714795E+03    0.23998E-03   -0.63566E-04  2080   0.591E-02    0.244E-02
DAV:   5    -0.873823723349E+03   -0.85539E-05   -0.27765E-04  2096   0.313E-02    0.201E-02
DAV:   6    -0.873823715128E+03    0.82213E-05   -0.46837E-05  2048   0.140E-02
  23 F= -.87382372E+03 E0= -.87382372E+03  d E =-.231555E-01  mag=    -0.0000
 BRION: g(F)=  0.381E-01 g(S)=  0.000E+00 retain N=  2 mean eig= 0.09
 eig:   0.132  0.055
 bond charge predicted
       N       E                     dE             d eps       ncg     rms          rms(c)
DAV:   1    -0.873836448109E+03   -0.12725E-01   -0.10417E+00  1728   0.141E+00    0.181E-01
DAV:   2    -0.873838982132E+03   -0.25340E-02   -0.31087E-02  2056   0.223E-01    0.114E-01
DAV:   3    -0.873838760294E+03    0.22184E-03   -0.56217E-04  2128   0.475E-02    0.720E-02
DAV:   4    -0.873838609975E+03    0.15032E-03   -0.36115E-04  2144   0.458E-02    0.200E-02
DAV:   5    -0.873838608316E+03    0.16591E-05   -0.15122E-04  2128   0.257E-02    0.144E-02
DAV:   6    -0.873838603495E+03    0.48210E-05   -0.38577E-05  1944   0.128E-02
  24 F= -.87383860E+03 E0= -.87383860E+03  d E =-.148884E-01  mag=     0.0000
 BRION: g(F)=  0.324E-01 g(S)=  0.000E+00 retain N=  3 mean eig= 1.59
 eig:   4.416  0.181  0.181
 bond charge predicted
       N       E                     dE             d eps       ncg     rms          rms(c)
DAV:   1    -0.873851583195E+03   -0.12975E-01   -0.15774E+00  1728   0.165E+00    0.222E-01
DAV:   2    -0.873855462511E+03   -0.38793E-02   -0.46671E-02  2032   0.251E-01    0.130E-01
DAV:   3    -0.873855202684E+03    0.25983E-03   -0.71272E-04  2160   0.432E-02    0.809E-02
DAV:   4    -0.873855032234E+03    0.17045E-03   -0.55279E-04  2128   0.480E-02    0.179E-02
DAV:   5    -0.873855037152E+03   -0.49185E-05   -0.16508E-04  2088   0.207E-02    0.150E-02
DAV:   6    -0.873855032034E+03    0.51182E-05   -0.13012E-05  1432   0.773E-03
  25 F= -.87385503E+03 E0= -.87385503E+03  d E =-.164285E-01  mag=    -0.0000
 BRION: g(F)=  0.455E-01 g(S)=  0.000E+00 retain N=  2 mean eig= 0.38
 eig:   0.148  0.610
 bond charge predicted
       N       E                     dE             d eps       ncg     rms          rms(c)
DAV:   1    -0.873865570364E+03   -0.10533E-01   -0.67378E-01  1728   0.111E+00    0.163E-01
DAV:   2    -0.873867172068E+03   -0.16017E-02   -0.20817E-02  2016   0.174E-01    0.110E-01
DAV:   3    -0.873867000204E+03    0.17186E-03   -0.35489E-04  2152   0.351E-02    0.670E-02
DAV:   4    -0.873866901448E+03    0.98756E-04   -0.32519E-04  2160   0.394E-02    0.143E-02
DAV:   5    -0.873866904469E+03   -0.30212E-05   -0.92002E-05  2064   0.175E-02
  26 F= -.87386690E+03 E0= -.87386690E+03  d E =-.118724E-01  mag=    -0.0000
 BRION: g(F)=  0.297E-01 g(S)=  0.000E+00 retain N=  2 mean eig= 3.35
 eig:   0.107  6.583
 bond charge predicted
       N       E                     dE             d eps       ncg     rms          rms(c)
DAV:   1    -0.873879639641E+03   -0.12738E-01   -0.16971E+00  1728   0.165E+00    0.231E-01
DAV:   2    -0.873883922467E+03   -0.42828E-02   -0.49545E-02  2032   0.247E-01    0.131E-01
DAV:   3    -0.873883682805E+03    0.23966E-03   -0.66604E-04  2144   0.404E-02    0.812E-02
DAV:   4    -0.873883547658E+03    0.13515E-03   -0.51457E-04  2048   0.428E-02    0.183E-02
DAV:   5    -0.873883551145E+03   -0.34878E-05   -0.14072E-04  2080   0.188E-02    0.151E-02
DAV:   6    -0.873883546438E+03    0.47072E-05   -0.17768E-05  1456   0.886E-03
  27 F= -.87388355E+03 E0= -.87388355E+03  d E =-.166420E-01  mag=    -0.0000
 BRION: g(F)=  0.358E-01 g(S)=  0.000E+00 retain N=  2 mean eig= 0.31
 eig:   0.045  0.577
 bond charge predicted
       N       E                     dE             d eps       ncg     rms          rms(c)
DAV:   1    -0.873892936299E+03   -0.93852E-02   -0.63612E-01  1728   0.108E+00    0.147E-01
DAV:   2    -0.873894463814E+03   -0.15275E-02   -0.19012E-02  2048   0.169E-01    0.965E-02
DAV:   3    -0.873894316990E+03    0.14682E-03   -0.31576E-04  2160   0.343E-02    0.592E-02
DAV:   4    -0.873894219580E+03    0.97410E-04   -0.22461E-04  2144   0.367E-02    0.138E-02
DAV:   5    -0.873894220468E+03   -0.88803E-06   -0.93139E-05  2128   0.190E-02
  28 F= -.87389422E+03 E0= -.87389422E+03  d E =-.106740E-01  mag=    -0.0000
 BRION: g(F)=  0.250E-01 g(S)=  0.000E+00 retain N=  2 mean eig= 3.85
 eig:   0.113  7.582
 bond charge predicted
       N       E                     dE             d eps       ncg     rms          rms(c)
DAV:   1    -0.873906376629E+03   -0.12157E-01   -0.16265E+00  1728   0.168E+00    0.219E-01
DAV:   2    -0.873910375838E+03   -0.39992E-02   -0.46715E-02  2048   0.253E-01    0.126E-01
DAV:   3    -0.873910150888E+03    0.22495E-03   -0.72728E-04  2144   0.489E-02    0.784E-02
DAV:   4    -0.873910005221E+03    0.14567E-03   -0.37223E-04  2128   0.443E-02    0.188E-02
DAV:   5    -0.873910010595E+03   -0.53737E-05   -0.16236E-04  2112   0.238E-02    0.151E-02
DAV:   6    -0.873910005444E+03    0.51511E-05   -0.23934E-05  1624   0.100E-02
  29 F= -.87391001E+03 E0= -.87391001E+03  d E =-.157850E-01  mag=     0.0000
 BRION: g(F)=  0.264E-01 g(S)=  0.000E+00 retain N=  2 mean eig= 0.11
 eig:   0.066  0.145
 bond charge predicted
       N       E                     dE             d eps       ncg     rms          rms(c)
DAV:   1    -0.873918402299E+03   -0.83917E-02   -0.60315E-01  1728   0.106E+00    0.138E-01
DAV:   2    -0.873919844474E+03   -0.14422E-02   -0.17615E-02  2080   0.166E-01    0.846E-02
DAV:   3    -0.873919720943E+03    0.12353E-03   -0.31153E-04  2160   0.355E-02    0.531E-02
DAV:   4    -0.873919640835E+03    0.80108E-04   -0.17945E-04  2160   0.328E-02    0.144E-02
DAV:   5    -0.873919640635E+03    0.19938E-06   -0.83031E-05  2128   0.191E-02
  30 F= -.87391964E+03 E0= -.87391964E+03  d E =-.963519E-02  mag=    -0.0000
 BRION: g(F)=  0.212E-01 g(S)=  0.000E+00 retain N=  2 mean eig= 1.26
 eig:   0.163  2.351
 bond charge predicted
       N       E                     dE             d eps       ncg     rms          rms(c)
DAV:   1    -0.873931630229E+03   -0.11989E-01   -0.18627E+00  1728   0.173E+00    0.235E-01
DAV:   2    -0.873936309177E+03   -0.46789E-02   -0.52886E-02  2032   0.255E-01    0.135E-01
DAV:   3    -0.873936094354E+03    0.21482E-03   -0.67734E-04  2144   0.416E-02    0.835E-02
DAV:   4    -0.873935969172E+03    0.12518E-03   -0.44081E-04  2064   0.411E-02    0.183E-02
DAV:   5    -0.873935975376E+03   -0.62034E-05   -0.13702E-04  2080   0.187E-02    0.149E-02
DAV:   6    -0.873935970693E+03    0.46823E-05   -0.14464E-05  1440   0.834E-03
  31 F= -.87393597E+03 E0= -.87393597E+03  d E =-.163301E-01  mag=    -0.0000
 BRION: g(F)=  0.231E-01 g(S)=  0.000E+00 retain N=  2 mean eig= 0.33
 eig:   0.141  0.511
 bond charge predicted
       N       E                     dE             d eps       ncg     rms          rms(c)
DAV:   1    -0.873942315442E+03   -0.63401E-02   -0.40186E-01  1728   0.886E-01    0.112E-01
DAV:   2    -0.873943239330E+03   -0.92389E-03   -0.11617E-02  2080   0.138E-01    0.704E-02
DAV:   3    -0.873943140756E+03    0.98574E-04   -0.19159E-04  2160   0.289E-02    0.439E-02
DAV:   4    -0.873943070600E+03    0.70155E-04   -0.14240E-04  2144   0.327E-02    0.104E-02
DAV:   5    -0.873943070850E+03   -0.24929E-06   -0.75064E-05  2128   0.172E-02
  32 F= -.87394307E+03 E0= -.87394307E+03  d E =-.710016E-02  mag=     0.0000
 BRION: g(F)=  0.197E-01 g(S)=  0.000E+00 retain N=  2 mean eig= 2.92
 eig:   0.157  5.684
 bond charge predicted
       N       E                     dE             d eps       ncg     rms          rms(c)
DAV:   1    -0.873953970999E+03   -0.10900E-01   -0.17475E+00  1728   0.167E+00    0.229E-01
DAV:   2    -0.873958297794E+03   -0.43268E-02   -0.49374E-02  2032   0.247E-01    0.129E-01
DAV:   3    -0.873958096393E+03    0.20140E-03   -0.67775E-04  2144   0.428E-02    0.798E-02
DAV:   4    -0.873957984045E+03    0.11235E-03   -0.38853E-04  2048   0.387E-02    0.182E-02
DAV:   5    -0.873957990956E+03   -0.69113E-05   -0.13116E-04  2080   0.189E-02    0.142E-02
DAV:   6    -0.873957987139E+03    0.38175E-05   -0.16085E-05  1488   0.830E-03
  33 F= -.87395799E+03 E0= -.87395799E+03  d E =-.149163E-01  mag=     0.0000
 BRION: g(F)=  0.224E-01 g(S)=  0.000E+00 retain N=  2 mean eig= 0.13
 eig:   0.125  0.127
 bond charge predicted
       N       E                     dE             d eps       ncg     rms          rms(c)
DAV:   1    -0.873962500428E+03   -0.45095E-02   -0.22664E-01  1760   0.666E-01    0.978E-02
DAV:   2    -0.873962983668E+03   -0.48324E-03   -0.69548E-03  2080   0.107E-01    0.680E-02
DAV:   3    -0.873962906768E+03    0.76900E-04   -0.14984E-04  2160   0.248E-02    0.411E-02
DAV:   4    -0.873962864031E+03    0.42736E-04   -0.11850E-04  2048   0.237E-02    0.960E-03
DAV:   5    -0.873962864809E+03   -0.77763E-06   -0.36094E-05  1824   0.120E-02
  34 F= -.87396286E+03 E0= -.87396286E+03  d E =-.487767E-02  mag=     0.0000
 BRION: g(F)=  0.208E-01 g(S)=  0.000E+00 retain N=  2 mean eig= 1.29
 eig:   0.108  2.473
 bond charge predicted
       N       E                     dE             d eps       ncg     rms          rms(c)
DAV:   1    -0.873970963386E+03   -0.80994E-02   -0.10600E+00  1728   0.126E+00    0.187E-01
DAV:   2    -0.873973469276E+03   -0.25059E-02   -0.30153E-02  2032   0.187E-01    0.104E-01
DAV:   3    -0.873973309509E+03    0.15977E-03   -0.45782E-04  2144   0.341E-02    0.637E-02
DAV:   4    -0.873973216183E+03    0.93327E-04   -0.31981E-04  2048   0.358E-02    0.140E-02
DAV:   5    -0.873973218292E+03   -0.21097E-05   -0.92277E-05  2096   0.155E-02
  35 F= -.87397322E+03 E0= -.87397322E+03  d E =-.103535E-01  mag=    -0.0000
 BRION: g(F)=  0.293E-01 g(S)=  0.000E+00 retain N=  3 mean eig= 2.15
 eig:   6.279  0.019  0.156
 bond charge predicted
       N       E                     dE             d eps       ncg     rms          rms(c)
DAV:   1    -0.873981391113E+03   -0.81749E-02   -0.79119E-01  1728   0.115E+00    0.168E-01
DAV:   2    -0.873983267026E+03   -0.18759E-02   -0.22916E-02  2032   0.175E-01    0.108E-01
DAV:   3    -0.873983115131E+03    0.15189E-03   -0.36484E-04  2144   0.340E-02    0.657E-02
DAV:   4    -0.873983023235E+03    0.91896E-04   -0.25674E-04  2192   0.351E-02    0.155E-02
DAV:   5    -0.873983024751E+03   -0.15163E-05   -0.78204E-05  2096   0.160E-02
  36 F= -.87398302E+03 E0= -.87398302E+03  d E =-.980646E-02  mag=    -0.0000
 BRION: g(F)=  0.200E-01 g(S)=  0.000E+00 retain N=  3 mean eig= 2.54
 eig:   7.379  0.116  0.116
 bond charge predicted
       N       E                     dE             d eps       ncg     rms          rms(c)
DAV:   1    -0.873985530789E+03   -0.25076E-02   -0.13681E-01  1728   0.565E-01    0.711E-02
DAV:   2    -0.873985759904E+03   -0.22912E-03   -0.40117E-03  2144   0.938E-02    0.479E-02
DAV:   3    -0.873985683456E+03    0.76448E-04   -0.10260E-04  2144   0.247E-02    0.295E-02
DAV:   4    -0.873985633571E+03    0.49885E-04   -0.84818E-05  2112   0.273E-02    0.743E-03
DAV:   5    -0.873985631944E+03    0.16272E-05   -0.50578E-05  2112   0.155E-02
  37 F= -.87398563E+03 E0= -.87398563E+03  d E =-.260719E-02  mag=     0.0000
 BRION: g(F)=  0.167E-01 g(S)=  0.000E+00 retain N=  2 mean eig= 0.56
 eig:   0.176  0.948
 bond charge predicted
       N       E                     dE             d eps       ncg     rms          rms(c)
DAV:   1    -0.873994997857E+03   -0.93643E-02   -0.13645E+00  1728   0.145E+00    0.201E-01
DAV:   2    -0.873998310683E+03   -0.33128E-02   -0.37294E-02  2016   0.209E-01    0.116E-01
DAV:   3    -0.873998169207E+03    0.14148E-03   -0.48637E-04  2144   0.353E-02    0.712E-02
DAV:   4    -0.873998093041E+03    0.76166E-04   -0.27105E-04  2000   0.308E-02    0.159E-02
DAV:   5    -0.873998098227E+03   -0.51855E-05   -0.81776E-05  2048   0.144E-02
  38 F= -.87399810E+03 E0= -.87399810E+03  d E =-.124663E-01  mag=    -0.0000
 BRION: g(F)=  0.148E-01 g(S)=  0.000E+00 retain N=  3 mean eig= 1.62
 eig:   4.461  0.288  0.105
 bond charge predicted
       N       E                     dE             d eps       ncg     rms          rms(c)
DAV:   1    -0.874004223101E+03   -0.61301E-02   -0.64583E-01  1728   0.100E+00    0.146E-01
DAV:   2    -0.874005754400E+03   -0.15313E-02   -0.18245E-02  2032   0.151E-01    0.797E-02
DAV:   3    -0.874005663541E+03    0.90859E-04   -0.27278E-04  2144   0.274E-02    0.490E-02
DAV:   4    -0.874005612720E+03    0.50821E-04   -0.17598E-04  1984   0.257E-02    0.111E-02
DAV:   5    -0.874005614872E+03   -0.21523E-05   -0.53008E-05  1904   0.121E-02
  39 F= -.87400561E+03 E0= -.87400561E+03  d E =-.751664E-02  mag=     0.0000
 BRION: g(F)=  0.209E-01 g(S)=  0.000E+00 retain N=  3 mean eig= 1.15
 eig:   0.212  0.212  3.012
 bond charge predicted
       N       E                     dE             d eps       ncg     rms          rms(c)
DAV:   1    -0.874011540025E+03   -0.59273E-02   -0.48537E-01  1728   0.840E-01    0.142E-01
DAV:   2    -0.874012656618E+03   -0.11166E-02   -0.14101E-02  2016   0.124E-01    0.954E-02
DAV:   3    -0.874012558418E+03    0.98200E-04   -0.23543E-04  1984   0.238E-02    0.564E-02
DAV:   4    -0.874012508601E+03    0.49817E-04   -0.18682E-04  1968   0.245E-02    0.122E-02
DAV:   5    -0.874012509530E+03   -0.92841E-06   -0.33114E-05  1680   0.936E-03
  40 F= -.87401251E+03 E0= -.87401251E+03  d E =-.689466E-02  mag=    -0.0000
 BRION: g(F)=  0.217E-01 g(S)=  0.000E+00 retain N=  3 mean eig= 1.84
 eig:   5.069  0.357  0.086
 bond charge predicted
       N       E                     dE             d eps       ncg     rms          rms(c)
DAV:   1    -0.874019675624E+03   -0.71670E-02   -0.89541E-01  1728   0.116E+00    0.170E-01
DAV:   2    -0.874021755782E+03   -0.20802E-02   -0.24764E-02  2032   0.173E-01    0.937E-02
DAV:   3    -0.874021624995E+03    0.13079E-03   -0.36723E-04  2144   0.314E-02    0.573E-02
DAV:   4    -0.874021549333E+03    0.75662E-04   -0.24116E-04  2032   0.314E-02    0.125E-02
DAV:   5    -0.874021551555E+03   -0.22216E-05   -0.75551E-05  2048   0.144E-02
  41 F= -.87402155E+03 E0= -.87402155E+03  d E =-.904203E-02  mag=     0.0000
 BRION: g(F)=  0.164E-01 g(S)=  0.000E+00 retain N=  2 mean eig= 0.94
 eig:   0.085  1.798
 bond charge predicted
       N       E                     dE             d eps       ncg     rms          rms(c)
DAV:   1    -0.874025683347E+03   -0.41340E-02   -0.47329E-01  1728   0.992E-01    0.127E-01
DAV:   2    -0.874026620233E+03   -0.93689E-03   -0.13288E-02  2112   0.158E-01    0.827E-02
DAV:   3    -0.874026456358E+03    0.16387E-03   -0.28400E-04  2160   0.391E-02    0.512E-02
DAV:   4    -0.874026343643E+03    0.11272E-03   -0.18957E-04  2256   0.408E-02    0.135E-02
DAV:   5    -0.874026338023E+03    0.56197E-05   -0.11379E-04  2240   0.243E-02    0.105E-02
DAV:   6    -0.874026333609E+03    0.44139E-05   -0.20669E-05  1536   0.961E-03
  42 F= -.87402633E+03 E0= -.87402633E+03  d E =-.478205E-02  mag=    -0.0000
 BRION: g(F)=  0.219E-01 g(S)=  0.000E+00 retain N=  3 mean eig= 1.43
 eig:   4.041  0.123  0.123
 bond charge predicted
       N       E                     dE             d eps       ncg     rms          rms(c)
DAV:   1    -0.874030808461E+03   -0.44704E-02   -0.26048E-01  1728   0.749E-01    0.940E-02
DAV:   2    -0.874031298587E+03   -0.49013E-03   -0.74666E-03  2128   0.123E-01    0.599E-02
DAV:   3    -0.874031198690E+03    0.99897E-04   -0.20427E-04  2160   0.330E-02    0.375E-02
DAV:   4    -0.874031138583E+03    0.60108E-04   -0.95472E-05  2112   0.283E-02    0.112E-02
DAV:   5    -0.874031134379E+03    0.42037E-05   -0.60900E-05  2112   0.191E-02
  43 F= -.87403113E+03 E0= -.87403113E+03  d E =-.480077E-02  mag=    -0.0000
 BRION: g(F)=  0.124E-01 g(S)=  0.000E+00 retain N=  2 mean eig= 2.20
 eig:   0.197  4.212
 bond charge predicted
       N       E                     dE             d eps       ncg     rms          rms(c)
DAV:   1    -0.874037949284E+03   -0.68107E-02   -0.96761E-01  1728   0.119E+00    0.177E-01
DAV:   2    -0.874040215998E+03   -0.22667E-02   -0.26014E-02  2016   0.170E-01    0.109E-01
DAV:   3    -0.874040100322E+03    0.11568E-03   -0.35295E-04  2128   0.295E-02    0.658E-02
DAV:   4    -0.874040040168E+03    0.60154E-04   -0.21125E-04  1968   0.267E-02    0.151E-02
DAV:   5    -0.874040043198E+03   -0.30301E-05   -0.52032E-05  1840   0.119E-02
  44 F= -.87404004E+03 E0= -.87404004E+03  d E =-.890882E-02  mag=     0.0000
 BRION: g(F)=  0.198E-01 g(S)=  0.000E+00 retain N=  3 mean eig= 1.83
 eig:   5.126  0.178  0.178
 bond charge predicted
       N       E                     dE             d eps       ncg     rms          rms(c)
DAV:   1    -0.874042229873E+03   -0.21897E-02   -0.89490E-02  1760   0.328E-01    0.748E-02
DAV:   2    -0.874042387612E+03   -0.15774E-03   -0.29339E-03  1984   0.541E-02    0.466E-02
DAV:   3    -0.874042345254E+03    0.42358E-04   -0.73990E-05  1792   0.131E-02    0.255E-02
DAV:   4    -0.874042326012E+03    0.19241E-04   -0.61311E-05  1696   0.135E-02    0.479E-03
DAV:   5    -0.874042326252E+03   -0.23941E-06   -0.11155E-05  1376   0.540E-03
  45 F= -.87404233E+03 E0= -.87404233E+03  d E =-.228305E-02  mag=    -0.0000
 BRION: g(F)=  0.128E-01 g(S)=  0.000E+00 retain N=  1 mean eig= 0.10
 eig:   0.104
 bond charge predicted
       N       E                     dE             d eps       ncg     rms          rms(c)
DAV:   1    -0.874049599101E+03   -0.72731E-02   -0.13084E+00  1728   0.140E+00    0.201E-01
DAV:   2    -0.874052629389E+03   -0.30303E-02   -0.34555E-02  2016   0.201E-01    0.118E-01
DAV:   3    -0.874052479783E+03    0.14961E-03   -0.46369E-04  2144   0.355E-02    0.722E-02
DAV:   4    -0.874052397487E+03    0.82296E-04   -0.26195E-04  2096   0.335E-02    0.170E-02
DAV:   5    -0.874052401336E+03   -0.38484E-05   -0.84267E-05  2096   0.156E-02
  46 F= -.87405240E+03 E0= -.87405240E+03  d E =-.100751E-01  mag=    -0.0000
 BRION: g(F)=  0.143E-01 g(S)=  0.000E+00 retain N=  2 mean eig= 0.06
 eig:   0.021  0.095
 bond charge predicted
       N       E                     dE             d eps       ncg     rms          rms(c)
DAV:   1    -0.874055318168E+03   -0.29207E-02   -0.14587E-01  1728   0.550E-01    0.714E-02
DAV:   2    -0.874055608601E+03   -0.29043E-03   -0.41191E-03  2128   0.883E-02    0.438E-02
DAV:   3    -0.874055563044E+03    0.45556E-04   -0.92175E-05  2160   0.209E-02    0.270E-02
DAV:   4    -0.874055536409E+03    0.26635E-04   -0.54853E-05  2048   0.188E-02    0.729E-03
DAV:   5    -0.874055535582E+03    0.82725E-06   -0.24196E-05  1712   0.111E-02
  47 F= -.87405554E+03 E0= -.87405554E+03  d E =-.313425E-02  mag=    -0.0000
 BRION: g(F)=  0.106E-01 g(S)=  0.000E+00 retain N=  2 mean eig= 3.74
 eig:   0.191  7.298
 bond charge predicted
       N       E                     dE             d eps       ncg     rms          rms(c)
DAV:   1    -0.874063026063E+03   -0.74897E-02   -0.18486E+00  1728   0.159E+00    0.234E-01
DAV:   2    -0.874067279212E+03   -0.42531E-02   -0.47894E-02  2016   0.220E-01    0.127E-01
DAV:   3    -0.874067116615E+03    0.16260E-03   -0.59649E-04  2128   0.330E-02    0.779E-02
DAV:   4    -0.874067046843E+03    0.69772E-04   -0.35024E-04  1760   0.284E-02    0.164E-02
DAV:   5    -0.874067051027E+03   -0.41843E-05   -0.81778E-05  1904   0.115E-02
  48 F= -.87406705E+03 E0= -.87406705E+03  d E =-.115154E-01  mag=    -0.0000
 BRION: g(F)=  0.158E-01 g(S)=  0.000E+00 retain N=  2 mean eig= 0.17
 eig:   0.193  0.138
 bond charge predicted
       N       E                     dE             d eps       ncg     rms          rms(c)
DAV:   1    -0.874066132716E+03    0.91413E-03   -0.53102E-02  1760   0.239E-01    0.628E-02
DAV:   2    -0.874066200996E+03   -0.68280E-04   -0.17927E-03  1936   0.410E-02    0.421E-02
DAV:   3    -0.874066167567E+03    0.33429E-04   -0.52371E-05  1712   0.103E-02    0.227E-02
DAV:   4    -0.874066154597E+03    0.12971E-04   -0.52437E-05  1648   0.108E-02    0.438E-03
DAV:   5    -0.874066154906E+03   -0.30948E-06   -0.81533E-06  1200   0.430E-03
  49 F= -.87406615E+03 E0= -.87406615E+03  d E =0.896121E-03  mag=     0.0000
 BRION: g(F)=  0.115E-01 g(S)=  0.000E+00 retain N=  1 mean eig= 0.10
 eig:   0.103
 bond charge predicted
       N       E                     dE             d eps       ncg     rms          rms(c)
DAV:   1    -0.874073141088E+03   -0.69865E-02   -0.13928E+00  1728   0.138E+00    0.202E-01
DAV:   2    -0.874076311371E+03   -0.31703E-02   -0.35533E-02  2016   0.190E-01    0.111E-01
DAV:   3    -0.874076189814E+03    0.12156E-03   -0.44298E-04  2128   0.296E-02    0.680E-02
DAV:   4    -0.874076134944E+03    0.54870E-04   -0.24698E-04  1728   0.244E-02    0.147E-02
DAV:   5    -0.874076138771E+03   -0.38272E-05   -0.59704E-05  1776   0.104E-02
  50 F= -.87407614E+03 E0= -.87407614E+03  d E =-.998387E-02  mag=    -0.0000
 BRION: g(F)=  0.988E-02 g(S)=  0.000E+00 retain N=  2 mean eig= 0.62
 eig:   0.100  1.137
 bond charge predicted
       N       E                     dE             d eps       ncg     rms          rms(c)
DAV:   1    -0.874079676629E+03   -0.35417E-02   -0.26685E-01  1728   0.650E-01    0.930E-02
DAV:   2    -0.874080267113E+03   -0.59048E-03   -0.70508E-03  2048   0.966E-02    0.542E-02
DAV:   3    -0.874080227447E+03    0.39665E-04   -0.11088E-04  2160   0.192E-02    0.330E-02
DAV:   4    -0.874080205472E+03    0.21975E-04   -0.62815E-05  1968   0.171E-02    0.841E-03
DAV:   5    -0.874080205970E+03   -0.49754E-06   -0.21438E-05  1696   0.899E-03
  51 F= -.87408021E+03 E0= -.87408021E+03  d E =-.406720E-02  mag=    -0.0000
 BRION: g(F)=  0.101E-01 g(S)=  0.000E+00 retain N=  2 mean eig= 0.97
 eig:   0.120  1.828
 bond charge predicted
       N       E                     dE             d eps       ncg     rms          rms(c)
DAV:   1    -0.874087380403E+03   -0.71749E-02   -0.21566E+00  1728   0.171E+00    0.257E-01
DAV:   2    -0.874092245407E+03   -0.48650E-02   -0.54632E-02  2016   0.236E-01    0.149E-01
DAV:   3    -0.874092052088E+03    0.19332E-03   -0.68822E-04  2128   0.379E-02    0.903E-02
DAV:   4    -0.874091970931E+03    0.81157E-04   -0.36813E-04  1840   0.310E-02    0.205E-02
DAV:   5    -0.874091978171E+03   -0.72396E-05   -0.85993E-05  2016   0.127E-02
  52 F= -.87409198E+03 E0= -.87409198E+03  d E =-.117722E-01  mag=     0.0000
 BRION: g(F)=  0.149E-01 g(S)=  0.000E+00 retain N=  2 mean eig= 0.03
 eig:   0.060  0.009
 bond charge predicted
       N       E                     dE             d eps       ncg     rms          rms(c)
DAV:   1    -0.874086115727E+03    0.58552E-02   -0.43073E-01  1728   0.758E-01    0.125E-01
DAV:   2    -0.874087035548E+03   -0.91982E-03   -0.11224E-02  2016   0.107E-01    0.851E-02
DAV:   3    -0.874086959545E+03    0.76004E-04   -0.17629E-04  1968   0.196E-02    0.505E-02
DAV:   4    -0.874086924595E+03    0.34949E-04   -0.13741E-04  1824   0.190E-02    0.106E-02
DAV:   5    -0.874086925577E+03   -0.98172E-06   -0.23237E-05  1584   0.687E-03
  53 F= -.87408693E+03 E0= -.87408693E+03  d E =0.505259E-02  mag=     0.0000
 BRION: g(F)=  0.111E-01 g(S)=  0.000E+00 retain N=  2 mean eig= 2.03
 eig:   0.181  3.873
 bond charge predicted
       N       E                     dE             d eps       ncg     rms          rms(c)
DAV:   1    -0.874093743092E+03   -0.68185E-02   -0.16469E+00  1728   0.150E+00    0.221E-01
DAV:   2    -0.874097414791E+03   -0.36717E-02   -0.41090E-02  2016   0.205E-01    0.129E-01
DAV:   3    -0.874097265121E+03    0.14967E-03   -0.51042E-04  2128   0.325E-02    0.780E-02
DAV:   4    -0.874097196573E+03    0.68548E-04   -0.27724E-04  1888   0.285E-02    0.175E-02
DAV:   5    -0.874097201334E+03   -0.47602E-05   -0.68685E-05  1856   0.118E-02
  54 F= -.87409720E+03 E0= -.87409720E+03  d E =-.102758E-01  mag=    -0.0000
 BRION: g(F)=  0.906E-02 g(S)=  0.000E+00 retain N=  2 mean eig= 0.47
 eig:   0.165  0.776
 bond charge predicted
       N       E                     dE             d eps       ncg     rms          rms(c)
DAV:   1    -0.874100186451E+03   -0.29899E-02   -0.20829E-01  1728   0.567E-01    0.824E-02
DAV:   2    -0.874100644376E+03   -0.45792E-03   -0.54730E-03  2048   0.845E-02    0.463E-02
DAV:   3    -0.874100612847E+03    0.31529E-04   -0.79565E-05  2032   0.165E-02    0.282E-02
DAV:   4    -0.874100594466E+03    0.18381E-04   -0.50510E-05  1904   0.167E-02    0.665E-03
DAV:   5    -0.874100594890E+03   -0.42449E-06   -0.19803E-05  1616   0.855E-03
  55 F= -.87410059E+03 E0= -.87410059E+03  d E =-.339356E-02  mag=    -0.0000
 BRION: g(F)=  0.873E-02 g(S)=  0.000E+00 retain N=  2 mean eig= 1.21
 eig:   0.158  2.270
 bond charge predicted
       N       E                     dE             d eps       ncg     rms          rms(c)
DAV:   1    -0.874107140606E+03   -0.65461E-02   -0.30439E+00  1728   0.200E+00    0.299E-01
DAV:   2    -0.874113839411E+03   -0.66988E-02   -0.75248E-02  2016   0.273E-01    0.164E-01
DAV:   3    -0.874113592051E+03    0.24736E-03   -0.93249E-04  2128   0.414E-02    0.996E-02
DAV:   4    -0.874113501846E+03    0.90205E-04   -0.50332E-04  1824   0.344E-02    0.213E-02
DAV:   5    -0.874113509073E+03   -0.72268E-05   -0.11917E-04  2032   0.141E-02    0.149E-02
DAV:   6    -0.874113504934E+03    0.41390E-05   -0.14681E-05  1488   0.714E-03
  56 F= -.87411350E+03 E0= -.87411350E+03  d E =-.129100E-01  mag=     0.0000
 BRION: g(F)=  0.128E-01 g(S)=  0.000E+00 retain N=  2 mean eig= 0.10
 eig:   0.102  0.102
 bond charge predicted
       N       E                     dE             d eps       ncg     rms          rms(c)
DAV:   1    -0.874103135600E+03    0.10373E-01   -0.12145E+00  1728   0.125E+00    0.193E-01
DAV:   2    -0.874105792276E+03   -0.26567E-02   -0.31030E-02  2016   0.171E-01    0.103E-01
DAV:   3    -0.874105668384E+03    0.12389E-03   -0.41383E-04  2064   0.266E-02    0.624E-02
DAV:   4    -0.874105625658E+03    0.42725E-04   -0.25524E-04  1680   0.228E-02    0.133E-02
DAV:   5    -0.874105628238E+03   -0.25801E-05   -0.55420E-05  1728   0.958E-03
  57 F= -.87410563E+03 E0= -.87410563E+03  d E =0.787670E-02  mag=     0.0000
 BRION: g(F)=  0.105E-01 g(S)=  0.000E+00 retain N=  2 mean eig= 2.06
 eig:   0.158  3.965
 bond charge predicted
       N       E                     dE             d eps       ncg     rms          rms(c)
DAV:   1    -0.874112016302E+03   -0.63906E-02   -0.20200E+00  1728   0.163E+00    0.241E-01
DAV:   2    -0.874116407943E+03   -0.43916E-02   -0.49242E-02  2016   0.222E-01    0.134E-01
DAV:   3    -0.874116229673E+03    0.17827E-03   -0.61095E-04  2144   0.350E-02    0.817E-02
DAV:   4    -0.874116158860E+03    0.70813E-04   -0.34364E-04  1792   0.286E-02    0.178E-02
DAV:   5    -0.874116164237E+03   -0.53761E-05   -0.82584E-05  1936   0.124E-02
  58 F= -.87411616E+03 E0= -.87411616E+03  d E =-.105360E-01  mag=    -0.0000
 BRION: g(F)=  0.814E-02 g(S)=  0.000E+00 retain N=  2 mean eig= 0.60
 eig:   0.196  0.999
 bond charge predicted
       N       E                     dE             d eps       ncg     rms          rms(c)
DAV:   1    -0.874119242826E+03   -0.30840E-02   -0.25642E-01  1728   0.629E-01    0.911E-02
DAV:   2    -0.874119798269E+03   -0.55544E-03   -0.66063E-03  2032   0.926E-02    0.520E-02
DAV:   3    -0.874119763924E+03    0.34345E-04   -0.10608E-04  2128   0.189E-02    0.314E-02
DAV:   4    -0.874119744837E+03    0.19087E-04   -0.51210E-05  1952   0.159E-02    0.810E-03
DAV:   5    -0.874119745188E+03   -0.35162E-06   -0.19055E-05  1584   0.870E-03
  59 F= -.87411975E+03 E0= -.87411975E+03  d E =-.358095E-02  mag=     0.0000
 BRION: g(F)=  0.789E-02 g(S)=  0.000E+00 retain N=  2 mean eig= 0.92
 eig:   0.113  1.721
 bond charge predicted
       N       E                     dE             d eps       ncg     rms          rms(c)
DAV:   1    -0.874125708319E+03   -0.59635E-02   -0.33094E+00  1728   0.207E+00    0.314E-01
DAV:   2    -0.874132857341E+03   -0.71490E-02   -0.80187E-02  2016   0.280E-01    0.179E-01
DAV:   3    -0.874132588258E+03    0.26908E-03   -0.10068E-03  2128   0.447E-02    0.108E-01
DAV:   4    -0.874132492924E+03    0.95334E-04   -0.50759E-04  1904   0.355E-02    0.245E-02
DAV:   5    -0.874132502713E+03   -0.97888E-05   -0.11977E-04  2032   0.147E-02    0.151E-02
DAV:   6    -0.874132498717E+03    0.39965E-05   -0.13646E-05  1504   0.687E-03
  60 F= -.87413250E+03 E0= -.87413250E+03  d E =-.127535E-01  mag=     0.0000
 BRION: g(F)=  0.115E-01 g(S)=  0.000E+00 retain N=  2 mean eig= 0.20
 eig:   0.197  0.197
 bond charge predicted
       N       E                     dE             d eps       ncg     rms          rms(c)
DAV:   1    -0.874120070248E+03    0.12432E-01   -0.16407E+00  1728   0.145E+00    0.231E-01
DAV:   2    -0.874123615779E+03   -0.35455E-02   -0.40656E-02  2016   0.198E-01    0.145E-01
DAV:   3    -0.874123428711E+03    0.18707E-03   -0.54491E-04  2112   0.337E-02    0.864E-02
DAV:   4    -0.874123357795E+03    0.70915E-04   -0.33413E-04  1824   0.288E-02    0.196E-02
DAV:   5    -0.874123363284E+03   -0.54881E-05   -0.65167E-05  1792   0.108E-02
  61 F= -.87412336E+03 E0= -.87412336E+03  d E =0.913543E-02  mag=     0.0000
 BRION: g(F)=  0.125E-01 g(S)=  0.000E+00 retain N=  2 mean eig= 1.15
 eig:   0.246  2.046
 bond charge predicted
       N       E                     dE             d eps       ncg     rms          rms(c)
DAV:   1    -0.874129190430E+03   -0.58326E-02   -0.15952E+00  1728   0.147E+00    0.218E-01
DAV:   2    -0.874132561460E+03   -0.33710E-02   -0.38053E-02  2016   0.200E-01    0.131E-01
DAV:   3    -0.874132400805E+03    0.16066E-03   -0.48672E-04  2144   0.333E-02    0.790E-02
DAV:   4    -0.874132332143E+03    0.68662E-04   -0.29432E-04  1936   0.295E-02    0.179E-02
DAV:   5    -0.874132336132E+03   -0.39891E-05   -0.66321E-05  1824   0.125E-02
  62 F= -.87413234E+03 E0= -.87413234E+03  d E =-.897285E-02  mag=     0.0000
 BRION: g(F)=  0.759E-02 g(S)=  0.000E+00 retain N=  2 mean eig= 0.96
 eig:   0.170  1.757
 bond charge predicted
       N       E                     dE             d eps       ncg     rms          rms(c)
DAV:   1    -0.874136110827E+03   -0.37787E-02   -0.46839E-01  1728   0.811E-01    0.121E-01
DAV:   2    -0.874137135475E+03   -0.10246E-02   -0.11742E-02  2016   0.116E-01    0.670E-02
DAV:   3    -0.874137091627E+03    0.43848E-04   -0.16407E-04  2096   0.199E-02    0.405E-02
DAV:   4    -0.874137069558E+03    0.22068E-04   -0.78500E-05  1856   0.166E-02    0.983E-03
DAV:   5    -0.874137070860E+03   -0.13014E-05   -0.21929E-05  1616   0.785E-03
  63 F= -.87413707E+03 E0= -.87413707E+03  d E =-.473473E-02  mag=     0.0000
 BRION: g(F)=  0.683E-02 g(S)=  0.000E+00 retain N=  2 mean eig= 0.19
 eig:   0.140  0.243
 bond charge predicted
       N       E                     dE             d eps       ncg     rms          rms(c)
DAV:   1    -0.874141594323E+03   -0.45248E-02   -0.11511E+00  1728   0.126E+00    0.187E-01
DAV:   2    -0.874144028014E+03   -0.24337E-02   -0.27902E-02  2016   0.176E-01    0.107E-01
DAV:   3    -0.874143905066E+03    0.12295E-03   -0.38291E-04  2144   0.329E-02    0.649E-02
DAV:   4    -0.874143845461E+03    0.59605E-04   -0.20263E-04  1856   0.274E-02    0.155E-02
DAV:   5    -0.874143848607E+03   -0.31459E-05   -0.63179E-05  2032   0.141E-02
  64 F= -.87414385E+03 E0= -.87414385E+03  d E =-.677775E-02  mag=     0.0000
 BRION: g(F)=  0.959E-02 g(S)=  0.000E+00 retain N=  3 mean eig= 0.27
 eig:   0.311  0.158  0.354
 bond charge predicted
       N       E                     dE             d eps       ncg     rms          rms(c)
DAV:   1    -0.874146441438E+03   -0.25960E-02   -0.22143E-01  1728   0.599E-01    0.868E-02
DAV:   2    -0.874146889042E+03   -0.44760E-03   -0.57465E-03  2064   0.904E-02    0.490E-02
DAV:   3    -0.874146842826E+03    0.46216E-04   -0.10155E-04  2144   0.196E-02    0.296E-02
DAV:   4    -0.874146817719E+03    0.25107E-04   -0.68563E-05  1984   0.185E-02    0.699E-03
DAV:   5    -0.874146818138E+03   -0.41855E-06   -0.24600E-05  1632   0.945E-03
  65 F= -.87414682E+03 E0= -.87414682E+03  d E =-.296953E-02  mag=    -0.0000
 BRION: g(F)=  0.821E-02 g(S)=  0.000E+00 retain N=  2 mean eig= 2.98
 eig:   0.193  5.771
 bond charge predicted
       N       E                     dE             d eps       ncg     rms          rms(c)
DAV:   1    -0.874145130349E+03    0.16874E-02   -0.83948E-02  1728   0.324E-01    0.743E-02
DAV:   2    -0.874145248241E+03   -0.11789E-03   -0.27678E-03  2000   0.562E-02    0.471E-02
DAV:   3    -0.874145203521E+03    0.44720E-04   -0.76859E-05  1792   0.140E-02    0.262E-02
DAV:   4    -0.874145182820E+03    0.20701E-04   -0.72437E-05  1808   0.163E-02    0.542E-03
DAV:   5    -0.874145183006E+03   -0.18581E-06   -0.14496E-05  1280   0.648E-03
  66 F= -.87414518E+03 E0= -.87414518E+03  d E =0.163513E-02  mag=    -0.0000
 BRION: g(F)=  0.146E-01 g(S)=  0.000E+00 retain N=  2 mean eig= 0.06
 eig:   0.056  0.056
 bond charge predicted
       N       E                     dE             d eps       ncg     rms          rms(c)
DAV:   1    -0.874149876717E+03   -0.46939E-02   -0.98868E-01  1728   0.116E+00    0.172E-01
DAV:   2    -0.874151961942E+03   -0.20852E-02   -0.24340E-02  2016   0.165E-01    0.942E-02
DAV:   3    -0.874151853956E+03    0.10799E-03   -0.34711E-04  2144   0.288E-02    0.574E-02
DAV:   4    -0.874151799097E+03    0.54859E-04   -0.19601E-04  1840   0.259E-02    0.130E-02
DAV:   5    -0.874151801592E+03   -0.24956E-05   -0.55860E-05  1904   0.121E-02
  67 F= -.87415180E+03 E0= -.87415180E+03  d E =-.661859E-02  mag=     0.0000
 BRION: g(F)=  0.744E-02 g(S)=  0.000E+00 retain N=  3 mean eig= 1.55
 eig:   4.314  0.164  0.164
 bond charge predicted
       N       E                     dE             d eps       ncg     rms          rms(c)
DAV:   1    -0.874153483541E+03   -0.16844E-02   -0.95909E-02  1728   0.426E-01    0.573E-02
DAV:   2    -0.874153672890E+03   -0.18935E-03   -0.24945E-03  2112   0.655E-02    0.338E-02
DAV:   3    -0.874153650569E+03    0.22321E-04   -0.48663E-05  2016   0.146E-02    0.206E-02
DAV:   4    -0.874153639221E+03    0.11348E-04   -0.30045E-05  1776   0.130E-02    0.530E-03
DAV:   5    -0.874153639278E+03   -0.57538E-07   -0.11866E-05  1392   0.743E-03
  68 F= -.87415364E+03 E0= -.87415364E+03  d E =-.183769E-02  mag=     0.0000
 BRION: g(F)=  0.577E-02 g(S)=  0.000E+00 retain N=  2 mean eig= 0.23
 eig:   0.256  0.213
 bond charge predicted
       N       E                     dE             d eps       ncg     rms          rms(c)
DAV:   1    -0.874157694189E+03   -0.40550E-02   -0.82561E-01  1728   0.103E+00    0.157E-01
DAV:   2    -0.874159427069E+03   -0.17329E-02   -0.19383E-02  2000   0.137E-01    0.883E-02
DAV:   3    -0.874159357679E+03    0.69389E-04   -0.23813E-04  1968   0.220E-02    0.532E-02
DAV:   4    -0.874159328117E+03    0.29562E-04   -0.12627E-04  1728   0.182E-02    0.120E-02
DAV:   5    -0.874159330439E+03   -0.23218E-05   -0.29748E-05  1664   0.763E-03
  69 F= -.87415933E+03 E0= -.87415933E+03  d E =-.569116E-02  mag=    -0.0000
 BRION: g(F)=  0.572E-02 g(S)=  0.000E+00 retain N=  3 mean eig= 0.42
 eig:   0.525  0.276  0.469
 bond charge predicted
       N       E                     dE             d eps       ncg     rms          rms(c)
DAV:   1    -0.874162341291E+03   -0.30132E-02   -0.39369E-01  1728   0.727E-01    0.111E-01
DAV:   2    -0.874163167583E+03   -0.82629E-03   -0.94673E-03  2016   0.102E-01    0.641E-02
DAV:   3    -0.874163126673E+03    0.40909E-04   -0.12735E-04  2016   0.186E-02    0.385E-02
DAV:   4    -0.874163107019E+03    0.19654E-04   -0.68261E-05  1712   0.158E-02    0.922E-03
DAV:   5    -0.874163108075E+03   -0.10555E-05   -0.19935E-05  1648   0.808E-03
  70 F= -.87416311E+03 E0= -.87416311E+03  d E =-.377764E-02  mag=    -0.0000
 BRION: g(F)=  0.671E-02 g(S)=  0.000E+00 retain N=  3 mean eig= 1.34
 eig:   3.622  0.278  0.120
 bond charge predicted
       N       E                     dE             d eps       ncg     rms          rms(c)
DAV:   1    -0.874165103453E+03   -0.19964E-02   -0.30901E-01  1728   0.606E-01    0.108E-01
DAV:   2    -0.874165715494E+03   -0.61204E-03   -0.81249E-03  2000   0.867E-02    0.593E-02
DAV:   3    -0.874165657301E+03    0.58193E-04   -0.13752E-04  1920   0.160E-02    0.349E-02
DAV:   4    -0.874165628402E+03    0.28899E-04   -0.11048E-04  1664   0.165E-02    0.729E-03
DAV:   5    -0.874165628875E+03   -0.47314E-06   -0.21464E-05  1568   0.662E-03
  71 F= -.87416563E+03 E0= -.87416563E+03  d E =-.252080E-02  mag=     0.0000
 BRION: g(F)=  0.164E-01 g(S)=  0.000E+00 retain N=  2 mean eig= 0.23
 eig:   0.113  0.341
 bond charge predicted
       N       E                     dE             d eps       ncg     rms          rms(c)
DAV:   1    -0.874166872578E+03   -0.12442E-02   -0.40019E-02  1728   0.254E-01    0.601E-02
DAV:   2    -0.874166914503E+03   -0.41925E-04   -0.13860E-03  2000   0.460E-02    0.436E-02
DAV:   3    -0.874166883386E+03    0.31117E-04   -0.49949E-05  1712   0.120E-02    0.239E-02
DAV:   4    -0.874166869745E+03    0.13641E-04   -0.55797E-05  1760   0.141E-02    0.575E-03
DAV:   5    -0.874166869579E+03    0.16585E-06   -0.10741E-05  1216   0.611E-03
  72 F= -.87416687E+03 E0= -.87416687E+03  d E =-.124070E-02  mag=     0.0000
 BRION: g(F)=  0.524E-02 g(S)=  0.000E+00 retain N=  1 mean eig= 0.11
 eig:   0.112
 bond charge predicted
       N       E                     dE             d eps       ncg     rms          rms(c)
DAV:   1    -0.874170453730E+03   -0.35840E-02   -0.72177E-01  1728   0.961E-01    0.147E-01
DAV:   2    -0.874171951699E+03   -0.14980E-02   -0.16792E-02  2016   0.129E-01    0.836E-02
DAV:   3    -0.874171887375E+03    0.64324E-04   -0.20797E-04  1968   0.212E-02    0.503E-02
DAV:   4    -0.874171859848E+03    0.27527E-04   -0.11424E-04  1696   0.177E-02    0.114E-02
DAV:   5    -0.874171862052E+03   -0.22040E-05   -0.28162E-05  1664   0.785E-03
  73 F= -.87417186E+03 E0= -.87417186E+03  d E =-.499247E-02  mag=     0.0000
 BRION: g(F)=  0.563E-02 g(S)=  0.000E+00 retain N=  2 mean eig= 0.23
 eig:   0.108  0.362
 bond charge predicted
       N       E                     dE             d eps       ncg     rms          rms(c)
DAV:   1    -0.874173321112E+03   -0.14613E-02   -0.83201E-02  1728   0.369E-01    0.522E-02
DAV:   2    -0.874173489733E+03   -0.16862E-03   -0.20978E-03  2080   0.547E-02    0.291E-02
DAV:   3    -0.874173475588E+03    0.14145E-04   -0.33901E-05  1744   0.110E-02    0.177E-02
DAV:   4    -0.874173468046E+03    0.75424E-05   -0.22260E-05  1600   0.108E-02
  74 F= -.87417347E+03 E0= -.87417347E+03  d E =-.160599E-02  mag=    -0.0000
 BRION: g(F)=  0.501E-02 g(S)=  0.000E+00 retain N=  1 mean eig= 0.22
 eig:   0.217
 bond charge predicted
       N       E                     dE             d eps       ncg     rms          rms(c)
DAV:   1    -0.874176773437E+03   -0.32978E-02   -0.56061E-01  1728   0.835E-01    0.130E-01
DAV:   2    -0.874177926450E+03   -0.11530E-02   -0.12939E-02  2016   0.111E-01    0.725E-02
DAV:   3    -0.874177881980E+03    0.44471E-04   -0.16245E-04  1936   0.179E-02    0.435E-02
DAV:   4    -0.874177863255E+03    0.18724E-04   -0.78918E-05  1568   0.139E-02    0.101E-02
DAV:   5    -0.874177864983E+03   -0.17274E-05   -0.18838E-05  1568   0.613E-03
  75 F= -.87417786E+03 E0= -.87417786E+03  d E =-.439694E-02  mag=     0.0000
 BRION: g(F)=  0.479E-02 g(S)=  0.000E+00 retain N=  2 mean eig= 1.27
 eig:   0.114  2.430
 bond charge predicted
       N       E                     dE             d eps       ncg     rms          rms(c)
DAV:   1    -0.874181174442E+03   -0.33112E-02   -0.70696E-01  1728   0.951E-01    0.147E-01
DAV:   2    -0.874182629764E+03   -0.14553E-02   -0.16356E-02  2000   0.128E-01    0.830E-02
DAV:   3    -0.874182565317E+03    0.64447E-04   -0.20310E-04  2016   0.216E-02    0.499E-02
DAV:   4    -0.874182538107E+03    0.27209E-04   -0.11365E-04  1760   0.188E-02    0.116E-02
DAV:   5    -0.874182539851E+03   -0.17434E-05   -0.28367E-05  1664   0.857E-03
  76 F= -.87418254E+03 E0= -.87418254E+03  d E =-.467487E-02  mag=     0.0000
 BRION: g(F)=  0.534E-02 g(S)=  0.000E+00 retain N=  2 mean eig= 0.43
 eig:   0.430  0.430
 bond charge predicted
       N       E                     dE             d eps       ncg     rms          rms(c)
DAV:   1    -0.874184235473E+03   -0.16974E-02   -0.14145E-01  1728   0.456E-01    0.685E-02
DAV:   2    -0.874184518121E+03   -0.28265E-03   -0.35516E-03  2048   0.667E-02    0.365E-02
DAV:   3    -0.874184496664E+03    0.21456E-04   -0.61256E-05  1872   0.138E-02    0.221E-02
DAV:   4    -0.874184484885E+03    0.11780E-04   -0.36179E-05  1632   0.125E-02    0.504E-03
DAV:   5    -0.874184485261E+03   -0.37659E-06   -0.11988E-05  1312   0.634E-03
  77 F= -.87418449E+03 E0= -.87418449E+03  d E =-.194541E-02  mag=     0.0000
 BRION: g(F)=  0.611E-02 g(S)=  0.000E+00 retain N=  2 mean eig= 0.68
 eig:   0.159  1.203
 bond charge predicted
       N       E                     dE             d eps       ncg     rms          rms(c)
DAV:   1    -0.874184969946E+03   -0.48506E-03   -0.14924E-02  1760   0.152E-01    0.346E-02
DAV:   2    -0.874184987403E+03   -0.17457E-04   -0.48971E-04  2016   0.263E-02    0.252E-02
DAV:   3    -0.874184977020E+03    0.10384E-04   -0.16935E-05  1616   0.750E-03    0.137E-02
DAV:   4    -0.874184972733E+03    0.42865E-05   -0.17348E-05  1536   0.819E-03
  78 F= -.87418497E+03 E0= -.87418497E+03  d E =-.487472E-03  mag=    -0.0000
 BRION: g(F)=  0.512E-02 g(S)=  0.000E+00 retain N=  2 mean eig= 1.06
 eig:   0.098  2.028
 bond charge predicted
       N       E                     dE             d eps       ncg     rms          rms(c)
DAV:   1    -0.874187862479E+03   -0.28855E-02   -0.48356E-01  1728   0.776E-01    0.119E-01
DAV:   2    -0.874188855518E+03   -0.99304E-03   -0.11191E-02  2016   0.103E-01    0.648E-02
DAV:   3    -0.874188814245E+03    0.41273E-04   -0.13975E-04  1952   0.163E-02    0.391E-02
DAV:   4    -0.874188795947E+03    0.18298E-04   -0.74691E-05  1520   0.136E-02    0.865E-03
DAV:   5    -0.874188797185E+03   -0.12383E-05   -0.18498E-05  1584   0.618E-03
  79 F= -.87418880E+03 E0= -.87418880E+03  d E =-.382445E-02  mag=     0.0000
 BRION: g(F)=  0.459E-02 g(S)=  0.000E+00 retain N=  3 mean eig= 2.77
 eig:   7.931  0.022  0.351
 bond charge predicted
       N       E                     dE             d eps       ncg     rms          rms(c)
DAV:   1    -0.874190516558E+03   -0.17206E-02   -0.13706E-01  1728   0.440E-01    0.671E-02
DAV:   2    -0.874190795319E+03   -0.27876E-03   -0.32571E-03  2032   0.620E-02    0.396E-02
DAV:   3    -0.874190778265E+03    0.17054E-04   -0.45470E-05  1744   0.120E-02    0.237E-02
DAV:   4    -0.874190770394E+03    0.78709E-05   -0.27872E-05  1568   0.114E-02
  80 F= -.87419077E+03 E0= -.87419077E+03  d E =-.197321E-02  mag=     0.0000
 BRION: g(F)=  0.461E-02 g(S)=  0.000E+00 retain N=  3 mean eig= 2.59
 eig:   0.093  0.093  7.578
 bond charge predicted
       N       E                     dE             d eps       ncg     rms          rms(c)
DAV:   1    -0.874193836940E+03   -0.30587E-02   -0.66374E-01  1728   0.919E-01    0.141E-01
DAV:   2    -0.874195190489E+03   -0.13535E-02   -0.15361E-02  2016   0.124E-01    0.774E-02
DAV:   3    -0.874195132718E+03    0.57771E-04   -0.19978E-04  2064   0.213E-02    0.466E-02
DAV:   4    -0.874195107022E+03    0.25696E-04   -0.99810E-05  1680   0.170E-02    0.109E-02
DAV:   5    -0.874195108775E+03   -0.17532E-05   -0.26350E-05  1664   0.821E-03
  81 F= -.87419511E+03 E0= -.87419511E+03  d E =-.433838E-02  mag=    -0.0000
 BRION: g(F)=  0.480E-02 g(S)=  0.000E+00 retain N=  3 mean eig= 1.70
 eig:   4.527  0.285  0.280
 bond charge predicted
       N       E                     dE             d eps       ncg     rms          rms(c)
DAV:   1    -0.874197041596E+03   -0.19346E-02   -0.20302E-01  1728   0.539E-01    0.836E-02
DAV:   2    -0.874197443558E+03   -0.40196E-03   -0.48380E-03  2048   0.769E-02    0.521E-02
DAV:   3    -0.874197413962E+03    0.29596E-04   -0.78746E-05  1952   0.164E-02    0.308E-02
DAV:   4    -0.874197399001E+03    0.14961E-04   -0.45834E-05  1776   0.153E-02    0.769E-03
DAV:   5    -0.874197399276E+03   -0.27416E-06   -0.15149E-05  1520   0.800E-03
  82 F= -.87419740E+03 E0= -.87419740E+03  d E =-.229050E-02  mag=     0.0000
 BRION: g(F)=  0.614E-02 g(S)=  0.000E+00 retain N=  3 mean eig= 0.96
 eig:   2.605  0.044  0.226
 bond charge predicted
       N       E                     dE             d eps       ncg     rms          rms(c)
DAV:   1    -0.874196230040E+03    0.11690E-02   -0.55603E-02  1728   0.280E-01    0.512E-02
DAV:   2    -0.874196327037E+03   -0.96997E-04   -0.14544E-03  2016   0.422E-02    0.370E-02
DAV:   3    -0.874196308283E+03    0.18754E-04   -0.33143E-05  1728   0.101E-02    0.213E-02
DAV:   4    -0.874196299233E+03    0.90499E-05   -0.31100E-05  1632   0.109E-02
  83 F= -.87419630E+03 E0= -.87419630E+03  d E =0.110004E-02  mag=     0.0000
 BRION: g(F)=  0.515E-02 g(S)=  0.000E+00 retain N=  2 mean eig= 1.05
 eig:   0.121  1.983
 bond charge predicted
       N       E                     dE             d eps       ncg     rms          rms(c)
DAV:   1    -0.874199255795E+03   -0.29475E-02   -0.57543E-01  1728   0.848E-01    0.131E-01
DAV:   2    -0.874200412628E+03   -0.11568E-02   -0.13003E-02  2016   0.112E-01    0.769E-02
DAV:   3    -0.874200360944E+03    0.51684E-04   -0.16470E-04  1984   0.189E-02    0.461E-02
DAV:   4    -0.874200338732E+03    0.22212E-04   -0.87309E-05  1616   0.153E-02    0.107E-02
DAV:   5    -0.874200340419E+03   -0.16867E-05   -0.20794E-05  1600   0.696E-03
  84 F= -.87420034E+03 E0= -.87420034E+03  d E =-.404119E-02  mag=    -0.0000
 BRION: g(F)=  0.426E-02 g(S)=  0.000E+00 retain N=  3 mean eig= 2.13
 eig:   5.993  0.105  0.297
 bond charge predicted
       N       E                     dE             d eps       ncg     rms          rms(c)
DAV:   1    -0.874201563868E+03   -0.12251E-02   -0.77847E-02  1728   0.340E-01    0.502E-02
DAV:   2    -0.874201718532E+03   -0.15466E-03   -0.18921E-03  2080   0.493E-02    0.272E-02
DAV:   3    -0.874201706723E+03    0.11809E-04   -0.29639E-05  1728   0.103E-02    0.165E-02
DAV:   4    -0.874201700697E+03    0.60259E-05   -0.18035E-05  1600   0.983E-03
  85 F= -.87420170E+03 E0= -.87420170E+03  d E =-.136028E-02  mag=    -0.0000
 BRION: g(F)=  0.413E-02 g(S)=  0.000E+00 retain N=  2 mean eig= 0.80
 eig:   0.082  1.515
 bond charge predicted
       N       E                     dE             d eps       ncg     rms          rms(c)
DAV:   1    -0.874204818302E+03   -0.31116E-02   -0.87884E-01  1728   0.105E+00    0.161E-01
DAV:   2    -0.874206578803E+03   -0.17605E-02   -0.19775E-02  2000   0.138E-01    0.906E-02
DAV:   3    -0.874206507539E+03    0.71264E-04   -0.25078E-04  1984   0.226E-02    0.543E-02
DAV:   4    -0.874206477813E+03    0.29726E-04   -0.12316E-04  1728   0.184E-02    0.128E-02
DAV:   5    -0.874206480183E+03   -0.23697E-05   -0.30062E-05  1680   0.798E-03
  86 F= -.87420648E+03 E0= -.87420648E+03  d E =-.477949E-02  mag=    -0.0000
 BRION: g(F)=  0.422E-02 g(S)=  0.000E+00 retain N=  2 mean eig= 0.26
 eig:   0.091  0.421
 bond charge predicted
       N       E                     dE             d eps       ncg     rms          rms(c)
DAV:   1    -0.874205715601E+03    0.76221E-03   -0.35569E-02  1728   0.253E-01    0.387E-02
DAV:   2    -0.874205770823E+03   -0.55222E-04   -0.10045E-03  2048   0.407E-02    0.250E-02
DAV:   3    -0.874205755272E+03    0.15551E-04   -0.25296E-05  1728   0.102E-02    0.147E-02
DAV:   4    -0.874205748051E+03    0.72211E-05   -0.23286E-05  1696   0.106E-02
  87 F= -.87420575E+03 E0= -.87420575E+03  d E =0.732132E-03  mag=    -0.0000
 BRION: g(F)=  0.609E-02 g(S)=  0.000E+00 retain N=  3 mean eig= 1.16
 eig:   3.047  0.079  0.367
 bond charge predicted
       N       E                     dE             d eps       ncg     rms          rms(c)
DAV:   1    -0.874207279785E+03   -0.15245E-02   -0.12383E-01  1728   0.392E-01    0.627E-02
DAV:   2    -0.874207524461E+03   -0.24468E-03   -0.29957E-03  2016   0.543E-02    0.338E-02
DAV:   3    -0.874207506480E+03    0.17982E-04   -0.44445E-05  1728   0.103E-02    0.203E-02
DAV:   4    -0.874207497449E+03    0.90311E-05   -0.31388E-05  1488   0.999E-03
  88 F= -.87420750E+03 E0= -.87420750E+03  d E =-.174940E-02  mag=     0.0000
 BRION: g(F)=  0.396E-02 g(S)=  0.000E+00 retain N=  2 mean eig= 1.53
 eig:   0.110  2.960
 bond charge predicted
       N       E                     dE             d eps       ncg     rms          rms(c)
DAV:   1    -0.874209872262E+03   -0.23658E-02   -0.37497E-01  1728   0.697E-01    0.107E-01
DAV:   2    -0.874210620848E+03   -0.74859E-03   -0.84912E-03  2016   0.935E-02    0.610E-02
DAV:   3    -0.874210586859E+03    0.33989E-04   -0.11273E-04  1936   0.167E-02    0.364E-02
[...]
 BRION: g(F)=  0.476E-04 g(S)=  0.000E+00 retain N=  1 mean eig= 0.17
 eig:   0.166
 bond charge predicted
       N       E                     dE             d eps       ncg     rms          rms(c)
DAV:   1    -0.874375732049E+03   -0.24158E-04   -0.81017E-03  1728   0.119E-01    0.159E-02
DAV:   2    -0.874375748459E+03   -0.16410E-04   -0.20377E-04  2128   0.174E-02    0.952E-03
DAV:   3    -0.874375746771E+03    0.16881E-05   -0.34353E-06  1136   0.401E-03
 462 F= -.87437575E+03 E0= -.87437575E+03  d E =-.365907E-04  mag=     0.0000
 BRION: g(F)=  0.970E-04 g(S)=  0.000E+00 retain N=  2 mean eig= 0.22
 eig:   0.221  0.221
 bond charge predicted
       N       E                     dE             d eps       ncg     rms          rms(c)
DAV:   1    -0.874375761129E+03   -0.12669E-04   -0.83213E-04  1728   0.443E-02    0.654E-03
DAV:   2    -0.874375762605E+03   -0.14758E-05   -0.25499E-05  1440   0.741E-03
 463 F= -.87437576E+03 E0= -.87437576E+03  d E =-.158334E-04  mag=     0.0000
 BRION: g(F)=  0.488E-04 g(S)=  0.000E+00 retain N=  2 mean eig= 2.23
 eig:   0.194  4.276
 bond charge predicted
       N       E                     dE             d eps       ncg     rms          rms(c)
DAV:   1    -0.874375774080E+03   -0.12951E-04   -0.66549E-04  1648   0.332E-02    0.553E-03
DAV:   2    -0.874375775399E+03   -0.13187E-05   -0.16628E-05  1136   0.502E-03
 464 F= -.87437578E+03 E0= -.87437578E+03  d E =-.127943E-04  mag=    -0.0000
 BRION: g(F)=  0.413E-04 g(S)=  0.000E+00 retain N=  2 mean eig= 0.28
 eig:   0.275  0.275
 bond charge predicted
       N       E                     dE             d eps       ncg     rms          rms(c)
DAV:   1    -0.874375800302E+03   -0.26222E-04   -0.69755E-03  1712   0.101E-01    0.144E-02
DAV:   2    -0.874375815636E+03   -0.15335E-04   -0.17010E-04  1968   0.141E-02    0.856E-03
DAV:   3    -0.874375814714E+03    0.92261E-06   -0.20700E-06  1024   0.254E-03
 465 F= -.87437581E+03 E0= -.87437581E+03  d E =-.393151E-04  mag=    -0.0000
 BRION: g(F)=  0.690E-04 g(S)=  0.000E+00 retain N=  3 mean eig= 0.25
 eig:   0.268  0.268  0.216
 bond charge predicted
       N       E                     dE             d eps       ncg     rms          rms(c)
DAV:   1    -0.874375824455E+03   -0.88188E-05   -0.38468E-04  1680   0.273E-02    0.438E-03
DAV:   2    -0.874375825043E+03   -0.58729E-06   -0.99233E-06  1072   0.429E-03
 466 F= -.87437583E+03 E0= -.87437583E+03  d E =-.103287E-04  mag=     0.0000
 BRION: g(F)=  0.434E-04 g(S)=  0.000E+00 retain N=  2 mean eig= 3.31
 eig:   0.110  6.512
 bond charge predicted
       N       E                     dE             d eps       ncg     rms          rms(c)
DAV:   1    -0.874375835538E+03   -0.11083E-04   -0.57632E-04  1648   0.300E-02    0.473E-03
DAV:   2    -0.874375836741E+03   -0.12025E-05   -0.14168E-05  1072   0.439E-03
 467 F= -.87437584E+03 E0= -.87437584E+03  d E =-.116983E-04  mag=    -0.0000
 BRION: g(F)=  0.416E-04 g(S)=  0.000E+00 retain N=  2 mean eig= 0.25
 eig:   0.253  0.253
 bond charge predicted
       N       E                     dE             d eps       ncg     rms          rms(c)
DAV:   1    -0.874375864001E+03   -0.28462E-04   -0.68127E-03  1712   0.101E-01    0.139E-02
DAV:   2    -0.874375878897E+03   -0.14896E-04   -0.16287E-04  1840   0.137E-02    0.826E-03
DAV:   3    -0.874375878149E+03    0.74746E-06   -0.20061E-06  1008   0.243E-03
 468 F= -.87437588E+03 E0= -.87437588E+03  d E =-.414086E-04  mag=    -0.0000
 BRION: g(F)=  0.477E-04 g(S)=  0.000E+00 retain N=  3 mean eig= 0.29
 eig:   0.533  0.105  0.234
 bond charge predicted
       N       E                     dE             d eps       ncg     rms          rms(c)
DAV:   1    -0.874375883204E+03   -0.43067E-05   -0.91455E-05  1568   0.120E-02    0.257E-03
DAV:   2    -0.874375883321E+03   -0.11754E-06   -0.17713E-06   960   0.182E-03
 469 F= -.87437588E+03 E0= -.87437588E+03  d E =-.517165E-05  mag=    -0.0000
 BRION: g(F)=  0.432E-04 g(S)=  0.000E+00 retain N=  3 mean eig= 2.61
 eig:   7.236  0.209  0.393
 bond charge predicted
       N       E                     dE             d eps       ncg     rms          rms(c)
DAV:   1    -0.874375888645E+03   -0.54417E-05   -0.46754E-02  1728   0.254E-01    0.352E-02
DAV:   2    -0.874375994081E+03   -0.10544E-03   -0.11450E-03  1936   0.345E-02    0.198E-02
DAV:   3    -0.874375989953E+03    0.41281E-05   -0.12075E-05  1568   0.520E-03
 470 F= -.87437599E+03 E0= -.87437599E+03  d E =-.106632E-03  mag=    -0.0000
 BRION: g(F)=  0.777E-04 g(S)=  0.000E+00 retain N=  3 mean eig= 0.50
 eig:   0.967  0.292  0.235
 bond charge predicted
       N       E                     dE             d eps       ncg     rms          rms(c)
DAV:   1    -0.874375833048E+03    0.16103E-03   -0.30913E-02  1728   0.209E-01    0.273E-02
DAV:   2    -0.874375908373E+03   -0.75325E-04   -0.81036E-04  1904   0.295E-02    0.163E-02
DAV:   3    -0.874375904845E+03    0.35284E-05   -0.77411E-06  1376   0.432E-03
 471 F= -.87437590E+03 E0= -.87437590E+03  d E =0.851083E-04  mag=    -0.0000
 BRION: g(F)=  0.609E-04 g(S)=  0.000E+00 retain N=  3 mean eig= 1.52
 eig:   3.541  0.504  0.504
 bond charge predicted
       N       E                     dE             d eps       ncg     rms          rms(c)
DAV:   1    -0.874375929268E+03   -0.20895E-04   -0.13397E-02  1728   0.138E-01    0.179E-02
DAV:   2    -0.874375962775E+03   -0.33507E-04   -0.35849E-04  1888   0.196E-02    0.106E-02
DAV:   3    -0.874375961309E+03    0.14664E-05   -0.31913E-06  1056   0.277E-03
 472 F= -.87437596E+03 E0= -.87437596E+03  d E =-.564643E-04  mag=     0.0000
 BRION: g(F)=  0.679E-04 g(S)=  0.000E+00 retain N=  4 mean eig= 1.52
 eig:   4.799  0.558  0.558  0.160
 bond charge predicted
       N       E                     dE             d eps       ncg     rms          rms(c)
DAV:   1    -0.874375981403E+03   -0.18628E-04   -0.23725E-03  1632   0.590E-02    0.883E-03
DAV:   2    -0.874375985899E+03   -0.44955E-05   -0.51730E-05  1472   0.804E-03
 473 F= -.87437599E+03 E0= -.87437599E+03  d E =-.245900E-04  mag=     0.0000
 BRION: g(F)=  0.461E-04 g(S)=  0.000E+00 retain N=  3 mean eig= 1.95
 eig:   5.230  0.303  0.303
 bond charge predicted
       N       E                     dE             d eps       ncg     rms          rms(c)
DAV:   1    -0.874375968137E+03    0.13266E-04   -0.57258E-02  1728   0.290E-01    0.412E-02
DAV:   2    -0.874376093928E+03   -0.12579E-03   -0.13995E-03  1968   0.401E-02    0.252E-02
DAV:   3    -0.874376087376E+03    0.65520E-05   -0.15838E-05  1632   0.640E-03
 474 F= -.87437609E+03 E0= -.87437609E+03  d E =-.101477E-03  mag=     0.0000
 BRION: g(F)=  0.270E-03 g(S)=  0.000E+00 retain N=  4 mean eig= 1.54
 eig:   5.418  0.249  0.249  0.260
 bond charge predicted
       N       E                     dE             d eps       ncg     rms          rms(c)
DAV:   1    -0.874376128305E+03   -0.34377E-04   -0.59793E-03  1728   0.954E-02    0.162E-02
DAV:   2    -0.874376139123E+03   -0.10818E-04   -0.14959E-04  1840   0.140E-02    0.927E-03
DAV:   3    -0.874376137738E+03    0.13844E-05   -0.33631E-06  1072   0.313E-03
 475 F= -.87437614E+03 E0= -.87437614E+03  d E =-.503626E-04  mag=    -0.0000
 BRION: g(F)=  0.684E-04 g(S)=  0.000E+00 retain N=  1 mean eig= 0.15
 eig:   0.153
 bond charge predicted
       N       E                     dE             d eps       ncg     rms          rms(c)
DAV:   1    -0.874376126480E+03    0.12643E-04   -0.96066E-03  1728   0.149E-01    0.185E-02
DAV:   2    -0.874376143047E+03   -0.16567E-04   -0.26402E-04  2096   0.241E-02    0.126E-02
DAV:   3    -0.874376138634E+03    0.44132E-05   -0.70722E-06  1456   0.689E-03
 476 F= -.87437614E+03 E0= -.87437614E+03  d E =-.895292E-06  mag=    -0.0000
 BRION: g(F)=  0.341E-03 g(S)=  0.000E+00 retain N=  2 mean eig= 0.20
 eig:   0.204  0.204
 bond charge predicted
       N       E                     dE             d eps       ncg     rms          rms(c)
DAV:   1    -0.874376180226E+03   -0.37179E-04   -0.36268E-03  1728   0.987E-02    0.121E-02
DAV:   2    -0.874376187859E+03   -0.76334E-05   -0.12167E-04  2064   0.168E-02    0.865E-03
DAV:   3    -0.874376185729E+03    0.21302E-05   -0.25288E-06   960   0.403E-03
 477 F= -.87437619E+03 E0= -.87437619E+03  d E =-.470954E-04  mag=     0.0000
 BRION: g(F)=  0.492E-04 g(S)=  0.000E+00 retain N=  1 mean eig= 0.23
 eig:   0.234
 bond charge predicted
       N       E                     dE             d eps       ncg     rms          rms(c)
DAV:   1    -0.874376193223E+03   -0.53633E-05   -0.78625E-03  1728   0.116E-01    0.167E-02
DAV:   2    -0.874376208635E+03   -0.15412E-04   -0.20783E-04  2096   0.180E-02    0.112E-02
DAV:   3    -0.874376206592E+03    0.20426E-05   -0.41765E-06  1280   0.446E-03
 478 F= -.87437621E+03 E0= -.87437621E+03  d E =-.208628E-04  mag=     0.0000
 BRION: g(F)=  0.260E-03 g(S)=  0.000E+00 retain N=  2 mean eig= 0.22
 eig:   0.222  0.222
 bond charge predicted
       N       E                     dE             d eps       ncg     rms          rms(c)
DAV:   1    -0.874376228796E+03   -0.20162E-04   -0.13902E-03  1744   0.504E-02    0.103E-02
DAV:   2    -0.874376231085E+03   -0.22894E-05   -0.51378E-05  1664   0.917E-03
 479 F= -.87437623E+03 E0= -.87437623E+03  d E =-.244935E-04  mag=     0.0000
 BRION: g(F)=  0.596E-04 g(S)=  0.000E+00 retain N=  1 mean eig= 0.14
 eig:   0.136
 bond charge predicted
       N       E                     dE             d eps       ncg     rms          rms(c)
DAV:   1    -0.874376230158E+03   -0.13620E-05   -0.88915E-03  1728   0.138E-01    0.171E-02
DAV:   2    -0.874376245544E+03   -0.15386E-04   -0.23961E-04  2112   0.222E-02    0.118E-02
DAV:   3    -0.874376241867E+03    0.36779E-05   -0.65966E-06  1440   0.664E-03
 480 F= -.87437624E+03 E0= -.87437624E+03  d E =-.107810E-04  mag=     0.0000
 BRION: g(F)=  0.265E-03 g(S)=  0.000E+00 retain N=  2 mean eig= 0.20
 eig:   0.196  0.196
 bond charge predicted
       N       E                     dE             d eps       ncg     rms          rms(c)
DAV:   1    -0.874376273409E+03   -0.27865E-04   -0.24887E-03  1728   0.818E-02    0.101E-02
DAV:   2    -0.874376278936E+03   -0.55272E-05   -0.83109E-05  1936   0.138E-02
 481 F= -.87437628E+03 E0= -.87437628E+03  d E =-.370698E-04  mag=     0.0000
 BRION: g(F)=  0.441E-04 g(S)=  0.000E+00 retain N=  1 mean eig= 0.24
 eig:   0.238
 bond charge predicted
       N       E                     dE             d eps       ncg     rms          rms(c)
DAV:   1    -0.874376296936E+03   -0.23527E-04   -0.69218E-03  1728   0.108E-01    0.152E-02
DAV:   2    -0.874376310090E+03   -0.13155E-04   -0.17423E-04  2096   0.165E-02    0.978E-03
DAV:   3    -0.874376308454E+03    0.16367E-05   -0.37667E-06  1152   0.440E-03
 482 F= -.87437631E+03 E0= -.87437631E+03  d E =-.295173E-04  mag=     0.0000
 BRION: g(F)=  0.111E-03 g(S)=  0.000E+00 retain N=  2 mean eig= 0.21
 eig:   0.260  0.167
 bond charge predicted
       N       E                     dE             d eps       ncg     rms          rms(c)
DAV:   1    -0.874376320309E+03   -0.10219E-04   -0.64511E-04  1680   0.360E-02    0.651E-03
DAV:   2    -0.874376321522E+03   -0.12130E-05   -0.21756E-05  1376   0.637E-03
 483 F= -.87437632E+03 E0= -.87437632E+03  d E =-.130686E-04  mag=    -0.0000
 BRION: g(F)=  0.476E-04 g(S)=  0.000E+00 retain N=  2 mean eig= 1.51
 eig:   0.130  2.885
 bond charge predicted
       N       E                     dE             d eps       ncg     rms          rms(c)
DAV:   1    -0.874376332293E+03   -0.11984E-04   -0.82147E-04  1632   0.383E-02    0.552E-03
DAV:   2    -0.874376333888E+03   -0.15953E-05   -0.21141E-05  1216   0.587E-03
 484 F= -.87437633E+03 E0= -.87437633E+03  d E =-.123660E-04  mag=     0.0000
 BRION: g(F)=  0.437E-04 g(S)=  0.000E+00 retain N=  3 mean eig= 2.31
 eig:   6.377  0.274  0.274
 bond charge predicted
       N       E                     dE             d eps       ncg     rms          rms(c)
DAV:   1    -0.874376341928E+03   -0.96346E-05   -0.34524E-04  1648   0.254E-02    0.423E-03
DAV:   2    -0.874376342567E+03   -0.63921E-06   -0.83234E-06  1024   0.392E-03
 485 F= -.87437634E+03 E0= -.87437634E+03  d E =-.867851E-05  mag=    -0.0000
 BRION: g(F)=  0.370E-04 g(S)=  0.000E+00 retain N=  3 mean eig= 0.98
 eig:   2.667  0.027  0.249
 bond charge predicted
       N       E                     dE             d eps       ncg     rms          rms(c)
DAV:   1    -0.874376368215E+03   -0.26288E-04   -0.74041E-03  1712   0.102E-01    0.142E-02
DAV:   2    -0.874376384117E+03   -0.15902E-04   -0.17299E-04  1840   0.136E-02    0.845E-03
DAV:   3    -0.874376383384E+03    0.73370E-06   -0.19904E-06   976   0.235E-03
 486 F= -.87437638E+03 E0= -.87437638E+03  d E =-.408168E-04  mag=    -0.0000
 BRION: g(F)=  0.405E-04 g(S)=  0.000E+00 retain N=  4 mean eig= 1.64
 eig:   5.513  0.639  0.033  0.362
 bond charge predicted
       N       E                     dE             d eps       ncg     rms          rms(c)
DAV:   1    -0.874376371738E+03    0.12380E-04   -0.44006E-04  1616   0.254E-02    0.322E-03
DAV:   2    -0.874376372953E+03   -0.12154E-05   -0.13231E-05  1088   0.401E-03
 487 F= -.87437637E+03 E0= -.87437637E+03  d E =0.104305E-04  mag=    -0.0000
 BRION: g(F)=  0.480E-04 g(S)=  0.000E+00 retain N=  3 mean eig= 2.19
 eig:   5.904  0.143  0.515
 bond charge predicted
       N       E                     dE             d eps       ncg     rms          rms(c)
DAV:   1    -0.874376388550E+03   -0.16813E-04   -0.28736E-02  1728   0.197E-01    0.270E-02
DAV:   2    -0.874376452224E+03   -0.63674E-04   -0.68574E-04  1920   0.262E-02    0.146E-02
DAV:   3    -0.874376449867E+03    0.23578E-05   -0.64572E-06  1360   0.364E-03
 488 F= -.87437645E+03 E0= -.87437645E+03  d E =-.769136E-04  mag=    -0.0000
 BRION: g(F)=  0.744E-04 g(S)=  0.000E+00 retain N=  4 mean eig= 1.77
 eig:   5.845  0.661  0.156  0.402
 bond charge predicted
       N       E                     dE             d eps       ncg     rms          rms(c)
DAV:   1    -0.874376472697E+03   -0.20473E-04   -0.39346E-03  1648   0.719E-02    0.118E-02
DAV:   2    -0.874376479943E+03   -0.72455E-05   -0.85653E-05  1552   0.936E-03
 489 F= -.87437648E+03 E0= -.87437648E+03  d E =-.300761E-04  mag=     0.0000
 BRION: g(F)=  0.572E-04 g(S)=  0.000E+00 retain N=  1 mean eig= 0.14
 eig:   0.143
 bond charge predicted
       N       E                     dE             d eps       ncg     rms          rms(c)
DAV:   1    -0.874376484801E+03   -0.12103E-04   -0.43215E-03  1728   0.982E-02    0.137E-02
DAV:   2    -0.874376491945E+03   -0.71439E-05   -0.12331E-04  2064   0.165E-02    0.907E-03
DAV:   3    -0.874376489723E+03    0.22220E-05   -0.39629E-06  1216   0.504E-03
 490 F= -.87437649E+03 E0= -.87437649E+03  d E =-.977983E-05  mag=     0.0000
 BRION: g(F)=  0.156E-03 g(S)=  0.000E+00 retain N=  2 mean eig= 0.11
 eig:   0.121  0.102
 bond charge predicted
       N       E                     dE             d eps       ncg     rms          rms(c)
DAV:   1    -0.874376512966E+03   -0.21022E-04   -0.19185E-03  1728   0.710E-02    0.870E-03
DAV:   2    -0.874376516753E+03   -0.37865E-05   -0.58904E-05  1712   0.118E-02
 491 F= -.87437652E+03 E0= -.87437652E+03  d E =-.270304E-04  mag=     0.0000
 BRION: g(F)=  0.420E-04 g(S)=  0.000E+00 retain N=  1 mean eig= 0.29
 eig:   0.292
 bond charge predicted
       N       E                     dE             d eps       ncg     rms          rms(c)
DAV:   1    -0.874376533083E+03   -0.20117E-04   -0.71189E-03  1728   0.104E-01    0.162E-02
DAV:   2    -0.874376546584E+03   -0.13500E-04   -0.17210E-04  1920   0.147E-02    0.106E-02
DAV:   3    -0.874376545208E+03    0.13760E-05   -0.29719E-06  1072   0.340E-03
 492 F= -.87437655E+03 E0= -.87437655E+03  d E =-.284546E-04  mag=     0.0000
 BRION: g(F)=  0.156E-03 g(S)=  0.000E+00 retain N=  2 mean eig= 0.13
 eig:   0.251  0.002
 bond charge predicted
       N       E                     dE             d eps       ncg     rms          rms(c)
DAV:   1    -0.874376556729E+03   -0.10146E-04   -0.49949E-04  1664   0.224E-02    0.693E-03
DAV:   2    -0.874376557430E+03   -0.70124E-06   -0.18150E-05  1296   0.436E-03
 493 F= -.87437656E+03 E0= -.87437656E+03  d E =-.122229E-04  mag=     0.0000
 BRION: g(F)=  0.397E-04 g(S)=  0.000E+00 retain N=  1 mean eig= 0.13
 eig:   0.127
 bond charge predicted
       N       E                     dE             d eps       ncg     rms          rms(c)
DAV:   1    -0.874376572983E+03   -0.16253E-04   -0.65836E-03  1728   0.108E-01    0.139E-02
DAV:   2    -0.874376586498E+03   -0.13515E-04   -0.16677E-04  2080   0.163E-02    0.861E-03
DAV:   3    -0.874376585110E+03    0.13875E-05   -0.28157E-06  1072   0.373E-03
 494 F= -.87437659E+03 E0= -.87437659E+03  d E =-.276797E-04  mag=     0.0000
 BRION: g(F)=  0.877E-04 g(S)=  0.000E+00 retain N=  2 mean eig= 0.18
 eig:   0.136  0.230
 bond charge predicted
       N       E                     dE             d eps       ncg     rms          rms(c)
DAV:   1    -0.874376599488E+03   -0.12990E-04   -0.10124E-03  1728   0.512E-02    0.619E-03
DAV:   2    -0.874376601277E+03   -0.17898E-05   -0.29103E-05  1408   0.829E-03
 495 F= -.87437660E+03 E0= -.87437660E+03  d E =-.161672E-04  mag=     0.0000
 BRION: g(F)=  0.362E-04 g(S)=  0.000E+00 retain N=  1 mean eig= 0.30
 eig:   0.305
 bond charge predicted
       N       E                     dE             d eps       ncg     rms          rms(c)
DAV:   1    -0.874376623479E+03   -0.23992E-04   -0.66325E-03  1728   0.101E-01    0.137E-02
DAV:   2    -0.874376636984E+03   -0.13505E-04   -0.15381E-04  1952   0.138E-02    0.815E-03
DAV:   3    -0.874376636114E+03    0.87018E-06   -0.20885E-06   976   0.274E-03
 496 F= -.87437664E+03 E0= -.87437664E+03  d E =-.348364E-04  mag=     0.0000
 BRION: g(F)=  0.422E-04 g(S)=  0.000E+00 retain N=  2 mean eig= 0.19
 eig:   0.342  0.047
 bond charge predicted
       N       E                     dE             d eps       ncg     rms          rms(c)
DAV:   1    -0.874376643397E+03   -0.64135E-05   -0.27643E-04  1648   0.223E-02    0.362E-03
DAV:   2    -0.874376643863E+03   -0.46578E-06   -0.63369E-06   976   0.342E-03
 497 F= -.87437664E+03 E0= -.87437664E+03  d E =-.774945E-05  mag=     0.0000
 BRION: g(F)=  0.355E-04 g(S)=  0.000E+00 retain N=  3 mean eig= 1.80
 eig:   4.827  0.347  0.226
 bond charge predicted
       N       E                     dE             d eps       ncg     rms          rms(c)
DAV:   1    -0.874376651468E+03   -0.80703E-05   -0.39800E-04  1600   0.232E-02    0.411E-03
DAV:   2    -0.874376652317E+03   -0.84881E-06   -0.98072E-06  1024   0.335E-03
 498 F= -.87437665E+03 E0= -.87437665E+03  d E =-.845335E-05  mag=     0.0000
 BRION: g(F)=  0.389E-04 g(S)=  0.000E+00 retain N=  3 mean eig= 1.20
 eig:   3.152  0.269  0.175
 bond charge predicted
       N       E                     dE             d eps       ncg     rms          rms(c)
DAV:   1    -0.874376669837E+03   -0.18369E-04   -0.26793E-03  1664   0.615E-02    0.893E-03
DAV:   2    -0.874376675433E+03   -0.55960E-05   -0.62360E-05  1520   0.842E-03
 499 F= -.87437668E+03 E0= -.87437668E+03  d E =-.231160E-04  mag=     0.0000
 BRION: g(F)=  0.352E-04 g(S)=  0.000E+00 retain N=  3 mean eig= 1.34
 eig:   3.387  0.228  0.403
 bond charge predicted
       N       E                     dE             d eps       ncg     rms          rms(c)
DAV:   1    -0.874376698095E+03   -0.28259E-04   -0.59059E-03  1712   0.928E-02    0.137E-02
DAV:   2    -0.874376710217E+03   -0.12121E-04   -0.13462E-04  1760   0.124E-02    0.848E-03
DAV:   3    -0.874376709443E+03    0.77355E-06   -0.18742E-06   960   0.230E-03
 500 F= -.87437671E+03 E0= -.87437671E+03  d E =-.340104E-04  mag=    -0.0000
 BRION: g(F)=  0.369E-04 g(S)=  0.000E+00 retain N=  2 mean eig= 3.38
 eig:   0.286  6.482
--------------------------------------------------------
>>>  Job finished at Fri Jun 24 02:00:29 EDT 2022
