>>>  VASP 5.4.4 with BEEF-vdw and vtst
--------------------------------------------------------
>>>  Job information
     SLURM_JOBID=8751167
     SLURM_JOB_NODELIST=cpn-u22-28
     SLURM_NNODES=1
     SLURMTMPDIR=/scratch/8751167
     working directory = /projects/academic/ericwalk/ruthbell/Ads_Ag-SSZ13/O2_1/vtst
--------------------------------------------------------
>>>  Module information
--------------------------------------------------------
>>>  Running Configuration
NPROCS=16
--------------------------------------------------------
>>>  Job started at Tue Jun 28 11:07:51 EDT 2022
--------------------------------------------------------
 running on   16 total cores
 distrk:  each k-point on   16 cores,    1 groups
 distr:  one band on    4 cores,    4 groups
 using from now: INCAR     
 vasp.5.4.4.18Apr17-6-g9f103f2a35 (build Dec 31 2018 11:41:54) complex          
  
 POSCAR found type information on POSCAR  O  Si Al Ag
 POSCAR found :  4 types and     113 ions
 scaLAPACK will be used
 LDA part: xc-table for Pade appr. of Perdew
 POSCAR found type information on POSCAR  O  Si Al Ag
 POSCAR found :  4 types and     113 ions
 POSCAR, INCAR and KPOINTS ok, starting setup
 FFT: planning ...
 WAVECAR not read
 entering main loop
       N       E                     dE             d eps       ncg     rms          rms(c)
DAV:   1     0.439050565461E+04    0.43905E+04   -0.25815E+05  1784   0.103E+03
DAV:   2    -0.412157966738E+03   -0.48027E+04   -0.46188E+04  2088   0.296E+02
DAV:   3    -0.935063275098E+03   -0.52291E+03   -0.51901E+03  2096   0.103E+02
DAV:   4    -0.945654323122E+03   -0.10591E+02   -0.10552E+02  2112   0.160E+01
DAV:   5    -0.945937651200E+03   -0.28333E+00   -0.28296E+00  2160   0.238E+00    0.863E+01
DAV:   6    -0.603408510744E+03    0.34253E+03   -0.70241E+02  1996   0.392E+01    0.281E+01
DAV:   7    -0.690398909556E+03   -0.86990E+02   -0.85802E+01  2072   0.132E+01    0.192E+01
DAV:   8    -0.752478995844E+03   -0.62080E+02   -0.25446E+01  2096   0.757E+00    0.115E+01
DAV:   9    -0.830308604071E+03   -0.77830E+02   -0.57861E+01  2052   0.925E+00    0.522E+00
DAV:  10    -0.842992903768E+03   -0.12684E+02   -0.70938E+00  2104   0.362E+00    0.360E+00
DAV:  11    -0.855867994636E+03   -0.12875E+02   -0.67376E+00  1948   0.341E+00    0.202E+00
DAV:  12    -0.861987692062E+03   -0.61197E+01   -0.33203E+00  1904   0.206E+00    0.107E+00
DAV:  13    -0.863576199882E+03   -0.15885E+01   -0.69844E-01  1928   0.981E-01    0.518E-01
DAV:  14    -0.863807684025E+03   -0.23148E+00   -0.98373E-02  2008   0.412E-01    0.341E-01
DAV:  15    -0.863837369913E+03   -0.29686E-01   -0.96981E-03  1992   0.187E-01    0.186E-01
DAV:  16    -0.863854292898E+03   -0.16923E-01   -0.78490E-03  1976   0.161E-01    0.934E-02
DAV:  17    -0.863854312803E+03   -0.19904E-04   -0.15663E-03  2048   0.865E-02    0.592E-02
DAV:  18    -0.863858849925E+03   -0.45371E-02   -0.90011E-04  1984   0.646E-02    0.304E-02
DAV:  19    -0.863862118932E+03   -0.32690E-02   -0.78340E-04  1968   0.538E-02    0.278E-02
DAV:  20    -0.863862518594E+03   -0.39966E-03   -0.18402E-04  2112   0.317E-02    0.204E-02
DAV:  21    -0.863862848943E+03   -0.33035E-03   -0.16034E-04  2032   0.297E-02    0.123E-02
DAV:  22    -0.863863159046E+03   -0.31010E-03   -0.58736E-05  2024   0.161E-02    0.116E-02
DAV:  23    -0.863863265711E+03   -0.10667E-03   -0.32489E-05  2064   0.131E-02    0.393E-03
DAV:  24    -0.863863339502E+03   -0.73791E-04   -0.21063E-05  2032   0.950E-03    0.342E-03
DAV:  25    -0.863863384071E+03   -0.44568E-04   -0.10936E-05  2040   0.662E-03    0.225E-03
DAV:  26    -0.863863403974E+03   -0.19903E-04   -0.60633E-06  2072   0.461E-03    0.162E-03
DAV:  27    -0.863863416591E+03   -0.12618E-04   -0.29900E-06  1976   0.299E-03    0.150E-03
DAV:  28    -0.863863419004E+03   -0.24127E-05   -0.90841E-07  2080   0.161E-03    0.130E-03
DAV:  29    -0.863863419261E+03   -0.25707E-06   -0.48645E-07  2056   0.120E-03    0.125E-03
DAV:  30    -0.863863419220E+03    0.40687E-07   -0.24192E-07  1952   0.816E-04    0.125E-03
DAV:  31    -0.863863419237E+03   -0.16793E-07   -0.66909E-08  1992   0.446E-04    0.123E-03
DAV:  32    -0.863863419250E+03   -0.12820E-07   -0.41902E-08  1968   0.331E-04    0.123E-03
DAV:  33    -0.863863419259E+03   -0.95242E-08   -0.13394E-08  1864   0.202E-04
   1 F= -.86386342E+03 E0= -.86386342E+03  d E =-.863863E+03  mag=     2.0000
quench:  g(F)=  0.000E+00 g(S)=  0.000E+00 dE (1.order)= 0.000E+00
 bond charge predicted
       N       E                     dE             d eps       ncg     rms          rms(c)
DAV:   1    -0.863863446754E+03   -0.27504E-04   -0.54401E-03  1768   0.568E-02    0.168E-02
DAV:   2    -0.863863453414E+03   -0.66598E-05   -0.48086E-05  1784   0.657E-03    0.675E-03
DAV:   3    -0.863863454118E+03   -0.70466E-06   -0.36545E-06  1768   0.351E-03    0.335E-03
DAV:   4    -0.863863454355E+03   -0.23611E-06   -0.29628E-07  1824   0.101E-03    0.173E-03
DAV:   5    -0.863863454302E+03    0.52918E-07   -0.11827E-07  1760   0.659E-04    0.129E-03
DAV:   6    -0.863863454287E+03    0.14639E-07   -0.96536E-09  1856   0.212E-04    0.125E-03
DAV:   7    -0.863863454287E+03    0.21100E-09   -0.19361E-09  1592   0.830E-05
   2 F= -.86386345E+03 E0= -.86386345E+03  d E =-.350274E-04  mag=     2.0000
quench:  g(F)=  0.000E+00 g(S)=  0.000E+00 dE (1.order)= 0.000E+00
 bond charge predicted
       N       E                     dE             d eps       ncg     rms          rms(c)
DAV:   1    -0.863863389338E+03    0.64950E-04   -0.10574E-02  1760   0.820E-02    0.294E-02
DAV:   2    -0.863863400866E+03   -0.11528E-04   -0.14217E-04  2016   0.101E-02    0.121E-02
DAV:   3    -0.863863405588E+03   -0.47227E-05   -0.68809E-06  1776   0.479E-03    0.567E-03
DAV:   4    -0.863863406641E+03   -0.10525E-05   -0.73191E-07  1936   0.137E-03    0.324E-03
DAV:   5    -0.863863406726E+03   -0.85565E-07   -0.20218E-07  1928   0.941E-04    0.194E-03
DAV:   6    -0.863863406761E+03   -0.34539E-07   -0.76787E-08  1808   0.551E-04    0.135E-03
DAV:   7    -0.863863406759E+03    0.20518E-08   -0.17710E-08  1936   0.247E-04
   3 F= -.86386341E+03 E0= -.86386341E+03  d E =0.475279E-04  mag=     2.0000
quench:  g(F)=  0.000E+00 g(S)=  0.000E+00 dE (1.order)= 0.000E+00
 bond charge predicted
       N       E                     dE             d eps       ncg     rms          rms(c)
DAV:   1    -0.863863169731E+03    0.23703E-03   -0.97484E-03  1744   0.756E-02    0.399E-02
DAV:   2    -0.863863182808E+03   -0.13077E-04   -0.16732E-04  2168   0.137E-02    0.191E-02
DAV:   3    -0.863863185183E+03   -0.23749E-05   -0.74466E-06  1872   0.417E-03    0.868E-03
DAV:   4    -0.863863185320E+03   -0.13693E-06   -0.21263E-06  2176   0.211E-03    0.511E-03
DAV:   5    -0.863863185054E+03    0.26572E-06   -0.34102E-07  2040   0.130E-03    0.270E-03
DAV:   6    -0.863863185148E+03   -0.94064E-07   -0.20136E-07  1856   0.917E-04    0.149E-03
DAV:   7    -0.863863185165E+03   -0.17120E-07   -0.32774E-08  2184   0.413E-04    0.128E-03
DAV:   8    -0.863863185174E+03   -0.86875E-08   -0.51375E-09  1800   0.161E-04
   4 F= -.86386319E+03 E0= -.86386319E+03  d E =0.221585E-03  mag=     2.0000
quench:  g(F)=  0.000E+00 g(S)=  0.000E+00 dE (1.order)= 0.000E+00
 bond charge predicted
       N       E                     dE             d eps       ncg     rms          rms(c)
DAV:   1    -0.863863413136E+03   -0.22797E-03   -0.10423E-02  1744   0.846E-02    0.304E-02
DAV:   2    -0.863863427449E+03   -0.14312E-04   -0.15708E-04  2104   0.128E-02    0.135E-02
DAV:   3    -0.863863433795E+03   -0.63458E-05   -0.63562E-06  1816   0.464E-03    0.608E-03
DAV:   4    -0.863863433980E+03   -0.18484E-06   -0.10449E-06  2160   0.151E-03    0.345E-03
DAV:   5    -0.863863433948E+03    0.31432E-07   -0.20566E-07  2056   0.101E-03    0.212E-03
DAV:   6    -0.863863433946E+03    0.21682E-08   -0.89939E-08  1888   0.621E-04
   5 F= -.86386343E+03 E0= -.86386343E+03  d E =-.248772E-03  mag=     2.0000
quench:  g(F)=  0.000E+00 g(S)=  0.000E+00 dE (1.order)= 0.000E+00
 bond charge predicted
       N       E                     dE             d eps       ncg     rms          rms(c)
DAV:   1    -0.863863109525E+03    0.32442E-03   -0.10512E-02  1728   0.902E-02    0.320E-02
DAV:   2    -0.863863121244E+03   -0.11719E-04   -0.13667E-04  2000   0.113E-02    0.145E-02
DAV:   3    -0.863863127477E+03   -0.62327E-05   -0.77411E-06  1768   0.576E-03    0.618E-03
DAV:   4    -0.863863128343E+03   -0.86597E-06   -0.12187E-06  2008   0.152E-03    0.414E-03
DAV:   5    -0.863863128491E+03   -0.14797E-06   -0.28653E-07  2024   0.129E-03    0.224E-03
DAV:   6    -0.863863128617E+03   -0.12609E-06   -0.12497E-07  1920   0.538E-04    0.138E-03
DAV:   7    -0.863863128628E+03   -0.11467E-07   -0.18486E-08  1888   0.280E-04    0.125E-03
DAV:   8    -0.863863128633E+03   -0.50786E-08   -0.38687E-09  1736   0.114E-04
   6 F= -.86386313E+03 E0= -.86386313E+03  d E =0.305312E-03  mag=     2.0000
quench:  g(F)=  0.000E+00 g(S)=  0.000E+00 dE (1.order)= 0.000E+00
 bond charge predicted
       N       E                     dE             d eps       ncg     rms          rms(c)
DAV:   1    -0.863863551510E+03   -0.42288E-03   -0.96994E-03  1728   0.820E-02    0.453E-02
DAV:   2    -0.863863564827E+03   -0.13317E-04   -0.15222E-04  2096   0.124E-02    0.229E-02
DAV:   3    -0.863863566661E+03   -0.18345E-05   -0.10394E-05  1992   0.622E-03    0.926E-03
DAV:   4    -0.863863567349E+03   -0.68719E-06   -0.30890E-06  2160   0.264E-03    0.658E-03
DAV:   5    -0.863863567082E+03    0.26642E-06   -0.57167E-07  2048   0.184E-03    0.307E-03
DAV:   6    -0.863863567130E+03   -0.48189E-07   -0.29054E-07  1976   0.682E-04    0.149E-03
DAV:   7    -0.863863567115E+03    0.15090E-07   -0.29927E-08  2144   0.481E-04    0.127E-03
DAV:   8    -0.863863567104E+03    0.11227E-07   -0.61181E-09  1936   0.213E-04    0.124E-03
DAV:   9    -0.863863567100E+03    0.39945E-08   -0.18206E-09  1680   0.131E-04
   7 F= -.86386357E+03 E0= -.86386357E+03  d E =-.438467E-03  mag=     2.0000
quench:  g(F)=  0.000E+00 g(S)=  0.000E+00 dE (1.order)= 0.000E+00
--------------------------------------------------------
>>>  Job finished at Tue Jun 28 11:36:39 EDT 2022
