 vasp.5.4.4.18Apr17-6-g9f103f2a35 (build Dec 31 2018 11:41:54) complex          
  
 executed on             LinuxIFC date 2022.06.28  11:07:53
 running on   16 total cores
 distrk:  each k-point on   16 cores,    1 groups
 distr:  one band on NCORES_PER_BAND=   4 cores,    4 groups


--------------------------------------------------------------------------------------------------------


 INCAR:
 POTCAR:   PAW_PBE O 08Apr2002                    
 POTCAR:   PAW_PBE Si 05Jan2001                   
 POTCAR:   PAW_PBE Al 04Jan2001                   
 POTCAR:   PAW_PBE Ag 06Sep2000                   
 POTCAR:   PAW_PBE O 08Apr2002                    
   VRHFIN =O: s2p4                                                              
   LEXCH  = PE                                                                  
   EATOM  =   432.3788 eV,   31.7789 Ry                                         
                                                                                
   TITEL  = PAW_PBE O 08Apr2002                                                 
   LULTRA =        F    use ultrasoft PP ?                                      
   IUNSCR =        0    unscreen: 0-lin 1-nonlin 2-no                           
   RPACOR =     .000    partial core radius                                     
   POMASS =   16.000; ZVAL   =    6.000    mass and valenz                      
   RCORE  =    1.520    outmost cutoff radius                                   
   RWIGS  =    1.550; RWIGS  =     .820    wigner-seitz radius (au A)           
   ENMAX  =  400.000; ENMIN  =  300.000 eV                                      
   ICORE  =        2    local potential                                         
   LCOR   =        T    correct aug charges                                     
   LPAW   =        T    paw PP                                                  
   EAUG   =  605.392                                                            
   DEXC   =     .000                                                            
   RMAX   =    2.264    core radius for proj-oper                               
   RAUG   =    1.300    factor for augmentation sphere                          
   RDEP   =    1.550    radius for radial grids                                 
   QCUT   =   -5.520; QGAM   =   11.041    optimization parameters              
                                                                                
   Description                                                                  
     l     E      TYP  RCUT    TYP  RCUT                                        
     0   .000     23  1.200                                                     
     0  -.700     23  1.200                                                     
     1   .000     23  1.520                                                     
     1   .600     23  1.520                                                     
     2   .000      7  1.500                                                     
  local pseudopotential read in
  atomic valenz-charges read in
  non local Contribution for L=           0  read in
    real space projection operators read in
  non local Contribution for L=           0  read in
    real space projection operators read in
  non local Contribution for L=           1  read in
    real space projection operators read in
  non local Contribution for L=           1  read in
    real space projection operators read in
    PAW grid and wavefunctions read in
 
   number of l-projection  operators is LMAX  =           4
   number of lm-projection operators is LMMAX =           8
 
 POTCAR:   PAW_PBE Si 05Jan2001                   
   VRHFIN =Si: s2p2                                                             
   LEXCH  = PE                                                                  
   EATOM  =   103.0669 eV,    7.5752 Ry                                         
                                                                                
   TITEL  = PAW_PBE Si 05Jan2001                                                
   LULTRA =        F    use ultrasoft PP ?                                      
   IUNSCR =        1    unscreen: 0-lin 1-nonlin 2-no                           
   RPACOR =    1.500    partial core radius                                     
   POMASS =   28.085; ZVAL   =    4.000    mass and valenz                      
   RCORE  =    1.900    outmost cutoff radius                                   
   RWIGS  =    2.480; RWIGS  =    1.312    wigner-seitz radius (au A)           
   ENMAX  =  245.345; ENMIN  =  184.009 eV                                      
   ICORE  =        2    local potential                                         
   LCOR   =        T    correct aug charges                                     
   LPAW   =        T    paw PP                                                  
   EAUG   =  322.069                                                            
   DEXC   =    -.007                                                            
   RMAX   =    2.944    core radius for proj-oper                               
   RAUG   =    1.300    factor for augmentation sphere                          
   RDEP   =    1.993    radius for radial grids                                 
   QCUT   =   -4.246; QGAM   =    8.493    optimization parameters              
                                                                                
   Description                                                                  
     l     E      TYP  RCUT    TYP  RCUT                                        
     0   .000     23  1.900                                                     
     0   .000     23  1.900                                                     
     1   .000     23  1.900                                                     
     1   .000     23  1.900                                                     
     2   .000      7  1.900                                                     
  local pseudopotential read in
  partial core-charges read in
  atomic valenz-charges read in
  non local Contribution for L=           0  read in
    real space projection operators read in
  non local Contribution for L=           0  read in
    real space projection operators read in
  non local Contribution for L=           1  read in
    real space projection operators read in
  non local Contribution for L=           1  read in
    real space projection operators read in
    PAW grid and wavefunctions read in
 
   number of l-projection  operators is LMAX  =           4
   number of lm-projection operators is LMMAX =           8
 
 POTCAR:   PAW_PBE Al 04Jan2001                   
   VRHFIN =Al: s2p1                                                             
   LEXCH  = PE                                                                  
   EATOM  =    53.5387 eV,    3.9350 Ry                                         
                                                                                
   TITEL  = PAW_PBE Al 04Jan2001                                                
   LULTRA =        F    use ultrasoft PP ?                                      
   IUNSCR =        1    unscreen: 0-lin 1-nonlin 2-no                           
   RPACOR =    1.500    partial core radius                                     
   POMASS =   26.982; ZVAL   =    3.000    mass and valenz                      
   RCORE  =    1.900    outmost cutoff radius                                   
   RWIGS  =    2.650; RWIGS  =    1.402    wigner-seitz radius (au A)           
   ENMAX  =  240.300; ENMIN  =  180.225 eV                                      
   ICORE  =        2    local potential                                         
   LCOR   =        T    correct aug charges                                     
   LPAW   =        T    paw PP                                                  
   EAUG   =  291.052                                                            
   DEXC   =    -.041                                                            
   RMAX   =    2.974    core radius for proj-oper                               
   RAUG   =    1.300    factor for augmentation sphere                          
   RDEP   =    1.966    radius for radial grids                                 
   QCUT   =   -4.203; QGAM   =    8.405    optimization parameters              
                                                                                
   Description                                                                  
     l     E      TYP  RCUT    TYP  RCUT                                        
     0   .000     23  1.900                                                     
     0   .000     23  1.900                                                     
     1   .000     23  1.900                                                     
     1  1.000     23  1.900                                                     
     2   .000      7  1.900                                                     
  local pseudopotential read in
  partial core-charges read in
  atomic valenz-charges read in
  non local Contribution for L=           0  read in
    real space projection operators read in
  non local Contribution for L=           0  read in
    real space projection operators read in
  non local Contribution for L=           1  read in
    real space projection operators read in
  non local Contribution for L=           1  read in
    real space projection operators read in
    PAW grid and wavefunctions read in
 
   number of l-projection  operators is LMAX  =           4
   number of lm-projection operators is LMMAX =           8
 
 POTCAR:   PAW_PBE Ag 06Sep2000                   
   VRHFIN =Ag : s1 d10                                                          
   LEXCH  = PE                                                                  
   EATOM  =  1037.4134 eV,   76.2477 Ry                                         
                                                                                
   TITEL  = PAW_PBE Ag 06Sep2000                                                
   LULTRA =        F    use ultrasoft PP ?                                      
   IUNSCR =        1    unscreen: 0-lin 1-nonlin 2-no                           
   RPACOR =    2.000    partial core radius                                     
   POMASS =  107.868; ZVAL   =   11.000    mass and valenz                      
   RCORE  =    2.400    outmost cutoff radius                                   
   RWIGS  =    2.840; RWIGS  =    1.503    wigner-seitz radius (au A)           
   ENMAX  =  249.846; ENMIN  =  187.385 eV                                      
   RCLOC  =    1.962    cutoff for local pot                                    
   LCOR   =        T    correct aug charges                                     
   LPAW   =        T    paw PP                                                  
   EAUG   =  412.496                                                            
   DEXC   =    -.047                                                            
   RMAX   =    2.917    core radius for proj-oper                               
   RAUG   =    1.300    factor for augmentation sphere                          
   RDEP   =    2.416    radius for radial grids                                 
   QCUT   =   -4.285; QGAM   =    8.570    optimization parameters              
                                                                                
   Description                                                                  
     l     E      TYP  RCUT    TYP  RCUT                                        
     2   .000     23  2.400                                                     
     2   .000     23  2.400                                                     
     0   .000     23  2.400                                                     
     0   .000     23  2.400                                                     
     1  -.200     23  2.400                                                     
     1  1.500     23  2.400                                                     
     3   .000      7   .000                                                     
  local pseudopotential read in
  partial core-charges read in
  atomic valenz-charges read in
  non local Contribution for L=           2  read in
    real space projection operators read in
  non local Contribution for L=           2  read in
    real space projection operators read in
  non local Contribution for L=           0  read in
    real space projection operators read in
  non local Contribution for L=           0  read in
    real space projection operators read in
  non local Contribution for L=           1  read in
    real space projection operators read in
  non local Contribution for L=           1  read in
    real space projection operators read in
    PAW grid and wavefunctions read in
 
   number of l-projection  operators is LMAX  =           6
   number of lm-projection operators is LMMAX =          18
 
 Optimization of the real space projectors (new method)

 maximal supplied QI-value         = 24.76
 optimisation between [QCUT,QGAM] = [ 10.15, 20.30] = [ 28.85,115.39] Ry 
 Optimized for a Real-space Cutoff    1.51 Angstroem

   l    n(q)    QCUT    max X(q) W(low)/X(q) W(high)/X(q)  e(spline) 
   0      9    10.150     4.192    0.32E-04    0.13E-04    0.13E-06
   0      9    10.150     8.473    0.18E-03    0.20E-03    0.43E-06
   1      9    10.150     2.474    0.32E-04    0.33E-04    0.64E-07
   1      9    10.150     3.912    0.13E-03    0.16E-03    0.33E-06
 Optimization of the real space projectors (new method)

 maximal supplied QI-value         = 19.84
 optimisation between [QCUT,QGAM] = [ 10.12, 20.44] = [ 28.68,116.96] Ry 
 Optimized for a Real-space Cutoff    1.38 Angstroem

   l    n(q)    QCUT    max X(q) W(low)/X(q) W(high)/X(q)  e(spline) 
   0      8    10.119     8.708    0.16E-04    0.67E-05    0.60E-08
   0      8    10.119   106.241    0.56E-04    0.11E-03    0.54E-07
   1      8    10.119     5.901    0.16E-04    0.16E-05    0.22E-07
   1      8    10.119    73.241    0.22E-03    0.17E-03    0.18E-06
 Optimization of the real space projectors (new method)

 maximal supplied QI-value         = 19.84
 optimisation between [QCUT,QGAM] = [ 10.12, 20.44] = [ 28.68,116.96] Ry 
 Optimized for a Real-space Cutoff    1.26 Angstroem

   l    n(q)    QCUT    max X(q) W(low)/X(q) W(high)/X(q)  e(spline) 
   0      8    10.119    13.410    0.28E-04    0.17E-04    0.51E-08
   0      8    10.119   140.052    0.10E-03    0.16E-03    0.42E-07
   1      7    10.119     9.624    0.38E-04    0.42E-05    0.15E-07
   1      7    10.119    53.353    0.23E-03    0.17E-03    0.13E-06
 Optimization of the real space projectors (new method)

 maximal supplied QI-value         = 15.68
 optimisation between [QCUT,QGAM] = [ 10.20, 20.39] = [ 29.11,116.42] Ry 
 Optimized for a Real-space Cutoff    1.51 Angstroem

   l    n(q)    QCUT    max X(q) W(low)/X(q) W(high)/X(q)  e(spline) 
   2      8    10.195     3.831    0.11E-04    0.20E-04    0.48E-07
   2      8    10.195    20.184    0.23E-03    0.42E-03    0.20E-06
   0      9    10.195    16.770    0.13E-04    0.90E-05    0.63E-08
   0      9    10.195    80.708    0.19E-03    0.15E-03    0.44E-07
   1      9    10.195     6.696    0.12E-04    0.45E-04    0.30E-07
   1      9    10.195     8.973    0.12E-03    0.15E-03    0.13E-06
 PAW_PBE O 08Apr2002                    :
 energy of atom  1       EATOM= -432.3788
 kinetic energy error for atom=    0.1156 (will be added to EATOM!!)
 PAW_PBE Si 05Jan2001                   :
 energy of atom  2       EATOM= -103.0669
 kinetic energy error for atom=    0.0012 (will be added to EATOM!!)
 PAW_PBE Al 04Jan2001                   :
 energy of atom  3       EATOM=  -53.5387
 kinetic energy error for atom=    0.0005 (will be added to EATOM!!)
 PAW_PBE Ag 06Sep2000                   :
 energy of atom  4       EATOM=-1037.4134
 kinetic energy error for atom=    0.0091 (will be added to EATOM!!)
 
 
 POSCAR: O  C                                    
  positions in direct lattice
  velocities in cartesian coordinates
 exchange correlation table for  LEXCH =        8
   RHO(1)=    0.500       N(1)  =     2000
   RHO(2)=  100.500       N(2)  =     4000

 VTST: version 3.2, (02/03/18)

 CHAIN: initializing optimizer
 
 OPT: Using VASP Quick-Min optimizer
 CHAIN: Read ICHAIN            1
 
 POSCAR: O  C                                    
  positions in direct lattice
  velocities in cartesian coordinates
 CHAIN: Running the Dynamical Matrix
 


--------------------------------------------------------------------------------------------------------


 ion  position               nearest neighbor table
   1  0.896  0.100  0.119-  75 1.63  82 1.63
   2  0.104  0.889  0.877-  76 1.62  81 1.63
   3  0.892  0.790  0.125-  85 1.61  77 1.63
   4  0.092  0.195  0.867-  78 1.63  84 1.63
   5  0.194  0.102  0.115-  79 1.63  83 1.63
   6  0.800  0.906  0.881-  80 1.59 108 1.72
   7  0.558  0.424  0.460-  86 1.62  92 1.63
   8  0.763  0.228  0.217-  91 1.59 109 1.73
   9  0.565  0.141  0.471-  96 1.64  87 1.64
  10  0.766  0.543  0.215-  95 1.63  88 1.63
  11  0.861  0.425  0.463-  94 1.63  89 1.64
  12  0.465  0.235  0.183-  90 1.63  93 1.64
  13  0.227  0.774  0.779- 104 1.61  97 1.64
  14  0.425  0.570  0.527-  98 1.66 103 1.67 112 2.55
  15  0.229  0.451  0.773- 107 1.62  99 1.62
  16  0.430  0.851  0.531- 100 1.62 110 1.79 112 2.28
  17  0.530  0.756  0.805- 101 1.63 106 1.64
  18  0.123  0.558  0.531- 105 1.65 102 1.68 112 2.46
  19  0.978  0.319  0.162-  75 1.61  91 1.63
  20  0.015  0.668  0.837- 104 1.63  76 1.63
  21  0.678  0.675  0.175-  95 1.61  77 1.63
  22  0.309  0.316  0.819- 107 1.62  78 1.63
  23  0.318  0.015  0.177-  79 1.61  93 1.63
  24  0.660  0.980  0.829- 106 1.62  80 1.63
  25  0.323  0.987  0.837-  81 1.61  97 1.63
  26  0.673  0.998  0.164-  82 1.60 109 1.74 111 2.56
  27  0.666  0.670  0.819- 101 1.61 108 1.77 113 2.32
  28  0.330  0.321  0.159-  83 1.62  90 1.62
  29  0.015  0.336  0.831-  99 1.61  84 1.62
  30  0.985  0.666  0.170-  85 1.62  88 1.62
  31  0.647  0.639  0.506- 103 1.61  86 1.62
  32  0.342  0.993  0.475-  87 1.59 110 1.71
  33  0.993  0.337  0.496- 105 1.61  89 1.63
  34  0.340  0.353  0.480-  98 1.61  92 1.63
  35  0.986  0.643  0.503- 102 1.62  94 1.62
  36  0.650  0.008  0.516- 100 1.61  96 1.64
  37  0.116  0.242  0.130-  83 1.61  75 1.62
  38  0.883  0.749  0.862-  76 1.62 108 1.77 113 2.32
  39  0.767  0.881  0.112-  82 1.60  77 1.61
  40  0.227  0.108  0.871-  78 1.61  81 1.61
  41  0.111  0.881  0.131-  79 1.61  85 1.61
  42  0.872  0.124  0.862-  84 1.61  80 1.62
  43  0.777  0.563  0.452-  86 1.61  94 1.61
  44  0.534  0.084  0.175-  93 1.62 109 1.79 111 2.30
  45  0.413  0.208  0.466-  92 1.60  87 1.64
  46  0.891  0.447  0.192-  88 1.61  91 1.63
  47  0.782  0.206  0.452-  89 1.60  96 1.63
  48  0.547  0.455  0.189-  90 1.62  95 1.62
  49  0.444  0.892  0.807- 106 1.62  97 1.64
  50  0.209  0.427  0.539-  98 1.62 105 1.62
  51  0.116  0.554  0.801-  99 1.61 104 1.62
  52  0.581  0.788  0.523- 103 1.61 100 1.64
  53  0.447  0.534  0.800- 107 1.62 101 1.63
  54  0.203  0.774  0.540- 102 1.58 110 1.73 112 2.76
  55  0.998  0.261  0.996-  84 1.62  75 1.63
  56  0.997  0.730  0.002-  76 1.62  85 1.63
  57  0.727  0.712  0.001-  77 1.60 108 1.72
  58  0.254  0.266  0.992-  78 1.63  83 1.63
  59  0.264  0.997  0.003-  81 1.63  79 1.64
  60  0.642  0.584  0.334-  86 1.62  95 1.63
  61  0.628  0.047  0.343-  96 1.60 109 1.72
  62  0.440  0.107  0.325-  93 1.61  87 1.63
  63  0.931  0.583  0.333-  94 1.62  88 1.63
  64  0.935  0.348  0.329-  89 1.62  91 1.64
  65  0.412  0.327  0.322-  92 1.62  90 1.63
  66  0.353  0.946  0.666-  97 1.59 110 1.74
  67  0.349  0.407  0.655-  98 1.63 107 1.64
  68  0.058  0.406  0.664- 105 1.62  99 1.63
  69  0.575  0.898  0.668- 106 1.61 100 1.62
  70  0.569  0.659  0.663- 103 1.61 101 1.62
  71  0.055  0.642  0.668- 104 1.63 102 1.63
  72  0.729  0.011  0.996-  80 1.66  82 1.67 111 2.47
  73  0.762  0.472  0.693-  74 1.25 113 2.18
  74  0.799  0.544  0.631-  73 1.25 113 2.75
  75  0.996  0.230  0.102-  19 1.61  37 1.62   1 1.63  55 1.63  91 3.08  83 3.10  84 3.13  82 3.14

  76  0.001  0.762  0.896-  38 1.62  56 1.62   2 1.62  20 1.63 104 3.05  85 3.11 108 3.22 113 3.28

  77  0.765  0.763  0.101-  57 1.60  39 1.61  21 1.63   3 1.63  95 3.01 108 3.05  85 3.13
  78  0.220  0.221  0.889-  40 1.61  58 1.63  22 1.63   4 1.63 107 3.07  83 3.11  84 3.12
  79  0.221  1.000  0.106-  41 1.61  23 1.61   5 1.63  59 1.64  93 3.05  81 3.09  85 3.14
  80  0.767  0.002  0.891-   6 1.59  42 1.62  24 1.63  72 1.66 106 3.07  84 3.09  82 3.10 108 3.21

  81  0.229  0.995  0.897-  25 1.61  40 1.61   2 1.63  59 1.63  97 3.06  79 3.09
  82  0.768  0.998  0.101-  26 1.60  39 1.60   1 1.63  72 1.67  80 3.10 109 3.13  75 3.14 111 3.17

  83  0.224  0.232  0.099-  37 1.61  28 1.62   5 1.63  58 1.63  90 3.07  75 3.10  78 3.11
  84  0.995  0.227  0.890-  42 1.61  55 1.62  29 1.62   4 1.63  99 3.07  80 3.09  78 3.12  75 3.13

  85  0.995  0.767  0.106-   3 1.61  41 1.61  30 1.62  56 1.63  88 3.04  76 3.11  77 3.13  79 3.14

  86  0.656  0.552  0.436-  43 1.61  60 1.62   7 1.62  31 1.62 103 3.07  92 3.08  95 3.08
  87  0.439  0.109  0.435-  32 1.59  62 1.63  45 1.64   9 1.64  96 3.02  92 3.04 110 3.07
  88  0.892  0.559  0.227-  46 1.61  30 1.62  63 1.63  10 1.63  85 3.04  91 3.08  94 3.09
  89  0.890  0.328  0.433-  47 1.60  64 1.62  33 1.63  11 1.64 105 3.03  91 3.07  94 3.09
  90  0.439  0.334  0.214-  48 1.62  28 1.62  65 1.63  12 1.63  93 3.06  83 3.07  95 3.09
  91  0.888  0.332  0.225-   8 1.59  19 1.63  46 1.63  64 1.64  89 3.07  75 3.08  88 3.08 109 3.25

  92  0.431  0.327  0.431-  45 1.60  65 1.62   7 1.63  34 1.63  87 3.04  98 3.07  86 3.08
  93  0.440  0.111  0.216-  62 1.61  44 1.62  23 1.63  12 1.64  79 3.05  90 3.06 109 3.07
  94  0.889  0.552  0.436-  43 1.61  63 1.62  35 1.62  11 1.63 102 3.04  89 3.09  88 3.09
  95  0.660  0.564  0.228-  21 1.61  48 1.62  60 1.63  10 1.63  77 3.01  86 3.08  90 3.09
  96  0.655  0.100  0.442-  61 1.60  47 1.63  36 1.64   9 1.64  87 3.02 100 3.04 109 3.11
  97  0.337  0.901  0.768-  66 1.59  25 1.63  49 1.64  13 1.64  81 3.06 106 3.09 110 3.14
  98  0.331  0.437  0.552-  34 1.61  50 1.62  67 1.63  14 1.66  92 3.07 107 3.11 103 3.11
  99  0.105  0.436  0.767-  29 1.61  51 1.61  15 1.62  68 1.63  84 3.07 104 3.08 105 3.09
 100  0.559  0.888  0.559-  36 1.61  69 1.62  16 1.62  52 1.64  96 3.04 103 3.04 110 3.18 112 3.35

 101  0.553  0.656  0.772-  27 1.61  70 1.62  53 1.63  17 1.63 107 3.08 106 3.09 108 3.13
 102  0.092  0.659  0.561-  54 1.58  35 1.62  71 1.63  18 1.68  94 3.04 104 3.09 105 3.14 112 3.25

 103  0.557  0.665  0.555-  70 1.61  31 1.61  52 1.61  14 1.67 100 3.04  86 3.07  98 3.11
 104  0.106  0.662  0.770-  13 1.61  51 1.62  20 1.63  71 1.63  76 3.05  99 3.08 102 3.09
 105  0.093  0.430  0.558-  33 1.61  68 1.62  50 1.62  18 1.65  89 3.03  99 3.09 102 3.14
 106  0.552  0.881  0.776-  69 1.61  49 1.62  24 1.62  17 1.64  80 3.07  97 3.09 101 3.09
 107  0.333  0.426  0.762-  22 1.62  15 1.62  53 1.62  67 1.64  78 3.07 101 3.08  98 3.11
 108  0.769  0.768  0.894-   6 1.72  57 1.72  38 1.77  27 1.77 113 2.96  77 3.05 101 3.13  80 3.21
                            76 3.22
 109  0.653  0.091  0.232-  61 1.72   8 1.73  26 1.74  44 1.79  93 3.07 111 3.10  96 3.11  82 3.13
                            91 3.25
 110  0.331  0.898  0.555-  32 1.71  54 1.73  66 1.74  16 1.79  87 3.07  97 3.14 100 3.18 112 3.22

 111  0.559  0.021  0.037-  44 2.30  72 2.47  26 2.56 109 3.10  82 3.17
 112  0.319  0.671  0.479-  16 2.28  18 2.46  14 2.55  54 2.76 110 3.22 102 3.25 100 3.35
 113  0.760  0.568  0.810-  73 2.18  38 2.32  27 2.32  74 2.75 108 2.96  76 3.28
 
  LATTYP: Found a hexagonal cell.
 ALAT       =    13.6750001907
 C/A-ratio  =     1.0798537472
  
  Lattice vectors:
  
 A1 = (  13.6750001907,   0.0000000000,   0.0000000000)
 A2 = (  -6.8375000954,  11.8428975619,   0.0000000000)
 A3 = (   0.0000000000,   0.0000000000,  14.7670001984)


Analysis of symmetry for initial positions (statically):
=====================================================================
 Subroutine PRICEL returns:
 Original cell was already a primitive cell.
 

 Routine SETGRP: Setting up the symmetry group for a 
 hexagonal supercell.


 Subroutine GETGRP returns: Found  1 space group operations
 (whereof  1 operations were pure point group operations)
 out of a pool of 24 trial point group operations.


The static configuration has the point symmetry C_1 .


Analysis of symmetry for dynamics (positions and initial velocities):
=====================================================================
 Subroutine PRICEL returns:
 Original cell was already a primitive cell.
 

 Routine SETGRP: Setting up the symmetry group for a 
 hexagonal supercell.


 Subroutine GETGRP returns: Found  1 space group operations
 (whereof  1 operations were pure point group operations)
 out of a pool of 24 trial point group operations.


The dynamic configuration has the point symmetry C_1 .


Analysis of structural, dynamic, and magnetic symmetry:
=====================================================================
 Subroutine PRICEL returns:
 Original cell was already a primitive cell.
 

 Routine SETGRP: Setting up the symmetry group for a 
 hexagonal supercell.


 Subroutine GETGRP returns: Found  1 space group operations
 (whereof  1 operations were pure point group operations)
 out of a pool of 24 trial point group operations.


The magnetic configuration has the point symmetry C_1 .


 Subroutine INISYM returns: Found  1 space group operations
 (whereof  1 operations are pure point group operations),
 and found     1 'primitive' translations

 
 
 KPOINTS: Gamma points only                       
  k-points in reciprocal lattice
Space group operators:
 irot       det(A)        alpha          n_x          n_y          n_z        tau_x        tau_y        tau_z
    1     1.000000     0.000000     1.000000     0.000000     0.000000     0.000000     0.000000     0.000000


--------------------------------------------------------------------------------------------------------




 Dimension of arrays:
   k-points           NKPTS =      1   k-points in BZ     NKDIM =      1   number of bands    NBANDS=    428
   number of dos      NEDOS =    301   number of ions     NIONS =    113
   non local maximal  LDIM  =      6   non local SUM 2l+1 LMDIM =     18
   total plane-waves  NPLWV = 777600
   max r-space proj   IRMAX =   4725   max aug-charges    IRDMAX= 128081
   dimension x,y,z NGX =    90 NGY =   90 NGZ =   96
   dimension x,y,z NGXF=   180 NGYF=  180 NGZF=  192
   support grid    NGXF=   360 NGYF=  360 NGZF=  384
   ions per type =              74  33   3   3
   NGX,Y,Z   is equivalent  to a cutoff of  10.94, 10.94, 10.81 a.u.
   NGXF,Y,Z  is equivalent  to a cutoff of  21.88, 21.88, 21.62 a.u.

 SYSTEM =  zeolite                                 
 POSCAR =  O  C                                    

 Startparameter for this run:
   NWRITE =      2    write-flag & timer
   PREC   = acc       normal or accurate (medium, high low for compatibility)
   ISTART =      0    job   : 0-new  1-cont  2-samecut
   ICHARG =      2    charge: 1-file 2-atom 10-const
   ISPIN  =      2    spin polarized calculation?
   LNONCOLLINEAR =      F non collinear calculations
   LSORBIT =      F    spin-orbit coupling
   INIWAV =      1    electr: 0-lowe 1-rand  2-diag
   LASPH  =      F    aspherical Exc in radial PAW
   METAGGA=      F    non-selfconsistent MetaGGA calc.

 Electronic Relaxation 1
   ENCUT  =  400.0 eV  29.40 Ry    5.42 a.u.  22.30 22.30 24.08*2*pi/ulx,y,z
   ENINI  =  400.0     initial cutoff
   ENAUG  =  605.4 eV  augmentation charge cutoff
   NELM   =    100;   NELMIN=  2; NELMDL= -5     # of ELM steps 
   EDIFF  = 0.1E-07   stopping-criterion for ELM
   LREAL  =      T    real-space projection
   NLSPLINE    = F    spline interpolate recip. space projectors
   LCOMPAT=      F    compatible to vasp.4.4
   GGA_COMPAT  = T    GGA compatible to vasp.4.4-vasp.4.6
   LMAXPAW     = -100 max onsite density
   LMAXMIX     =    2 max onsite mixed and CHGCAR
   VOSKOWN=      0    Vosko Wilk Nusair interpolation
   ROPT   =   -0.00025  -0.00025  -0.00025  -0.00025
 Ionic relaxation
   EDIFFG = -.1E-07   stopping-criterion for IOM
   NSW    =      7    number of steps for IOM
   NBLOCK =      1;   KBLOCK =      7    inner block; outer block 
   IBRION =      3    ionic relax: 0-MD 1-quasi-New 2-CG
   NFREE  =      0    steps in history (QN), initial steepest desc. (CG)
   ISIF   =      2    stress and relaxation
   IWAVPR =     11    prediction:  0-non 1-charg 2-wave 3-comb
   ISYM   =      2    0-nonsym 1-usesym 2-fastsym
   LCORR  =      T    Harris-Foulkes like correction to forces

   POTIM  = 0.0000    time-step for ionic-motion
   TEIN   =    0.0    initial temperature
   TEBEG  =    0.0;   TEEND  =   0.0 temperature during run
   SMASS  =  -3.00    Nose mass-parameter (am)
   estimated Nose-frequenzy (Omega)   =  0.10E-29 period in steps =  0.00 mass=  -0.427E-26a.u.
   SCALEE = 1.0000    scale energy and forces
   NPACO  =    256;   APACO  = 16.0  distance and # of slots for P.C.
   PSTRESS=    0.0 pullay stress

  Mass of Ions in am
   POMASS =  16.00 28.09 26.98107.87
  Ionic Valenz
   ZVAL   =   6.00  4.00  3.00 11.00
  Atomic Wigner-Seitz radii
   RWIGS  =  -1.00 -1.00 -1.00 -1.00
  virtual crystal weights 
   VCA    =   1.00  1.00  1.00  1.00
   NELECT =     618.0000    total number of electrons
   NUPDOWN=      -1.0000    fix difference up-down

 DOS related values:
   EMIN   =  10.00;   EMAX   =-10.00  energy-range for DOS
   EFERMI =   0.00
   ISMEAR =     0;   SIGMA  =   0.05  broadening in eV -4-tet -1-fermi 0-gaus

 Electronic relaxation 2 (details)
   IALGO  =     38    algorithm
   LDIAG  =      T    sub-space diagonalisation (order eigenvalues)
   LSUBROT=      F    optimize rotation matrix (better conditioning)
   TURBO    =      0    0=normal 1=particle mesh
   IRESTART =      0    0=no restart 2=restart with 2 vectors
   NREBOOT  =      0    no. of reboots
   NMIN     =      0    reboot dimension
   EREF     =   0.00    reference energy to select bands
   IMIX   =      4    mixing-type and parameters
     AMIX     =   0.40;   BMIX     =  1.00
     AMIX_MAG =   1.60;   BMIX_MAG =  1.00
     AMIN     =   0.10
     WC   =   100.;   INIMIX=   1;  MIXPRE=   1;  MAXMIX= -45

 Intra band minimization:
   WEIMIN = 0.0010     energy-eigenvalue tresh-hold
   EBREAK =  0.58E-12  absolut break condition
   DEPER  =   0.30     relativ break condition  

   TIME   =   0.40     timestep for ELM

  volume/ion in A,a.u.               =      21.16       142.82
  Fermi-wavevector in a.u.,A,eV,Ry     =   1.042746  1.970504 14.793871  1.087319
  Thomas-Fermi vector in A             =   2.177425
 
 Write flags
   LWAVE        =      F    write WAVECAR
   LDOWNSAMPLE  =      F    k-point downsampling of WAVECAR
   LCHARG       =      F    write CHGCAR
   LVTOT        =      F    write LOCPOT, total local potential
   LVHAR        =      F    write LOCPOT, Hartree potential only
   LELF         =      F    write electronic localiz. function (ELF)
   LORBIT       =     11    0 simple, 1 ext, 2 COOP (PROOUT), +10 PAW based schemes


 Dipole corrections
   LMONO  =      F    monopole corrections only (constant potential shift)
   LDIPOL =      F    correct potential (dipole corrections)
   IDIPOL =      0    1-x, 2-y, 3-z, 4-all directions 
   EPSILON=  1.0000000 bulk dielectric constant

 Exchange correlation treatment:
   GGA     =    --    GGA type
   LEXCH   =     8    internal setting for exchange type
   VOSKOWN=      0    Vosko Wilk Nusair interpolation
   LHFCALC =     F    Hartree Fock is set to
   LHFONE  =     F    Hartree Fock one center treatment
   AEXX    =    0.0000 exact exchange contribution

 Linear response parameters
   LEPSILON=     F    determine dielectric tensor
   LRPA    =     F    only Hartree local field effects (RPA)
   LNABLA  =     F    use nabla operator in PAW spheres
   LVEL    =     F    velocity operator in full k-point grid
   LINTERFAST=   F  fast interpolation
   KINTER  =     0    interpolate to denser k-point grid
   CSHIFT  =0.1000    complex shift for real part using Kramers Kronig
   OMEGAMAX=  -1.0    maximum frequency
   DEG_THRESHOLD= 0.2000000E-02 threshold for treating states as degnerate
   RTIME   =   -0.100 relaxation time in fs
  (WPLASMAI=    0.000 imaginary part of plasma frequency in eV, 0.658/RTIME)
   DFIELD  = 0.0000000 0.0000000 0.0000000 field for delta impulse in time
 
 Orbital magnetization related:
   ORBITALMAG=     F  switch on orbital magnetization
   LCHIMAG   =     F  perturbation theory with respect to B field
   DQ        =  0.001000  dq finite difference perturbation B field
   LLRAUG    =     F  two centre corrections for induced B field



--------------------------------------------------------------------------------------------------------


 quickmin algorithm: (dynamic with friction)
 charge density and potential will be updated during run
 spin polarized calculation
 Variant of blocked Davidson
 Davidson routine will perform the subspace rotation
 perform sub-space diagonalisation
    after iterative eigenvector-optimisation
 modified Broyden-mixing scheme, WC =      100.0
 initial mixing is a Kerker type mixing with AMIX =  0.4000 and BMIX =      1.0000
 Hartree-type preconditioning will be used
 using additional bands          119
 real space projection scheme for non local part
 use partial core corrections
 calculate Harris-corrections to forces 
   (improved forces if not selfconsistent)
 use gradient corrections 
 use of overlap-Matrix (Vanderbilt PP)
 Gauss-broadening in eV      SIGMA  =   0.05


--------------------------------------------------------------------------------------------------------


  energy-cutoff  :      400.00
  volume of cell :     2391.54
      direct lattice vectors                 reciprocal lattice vectors
    13.675000191  0.000000000  0.000000000     0.073126142  0.042219398  0.000000000
    -6.837500095 11.842897562  0.000000000     0.000000000  0.084438795  0.000000000
     0.000000000  0.000000000 14.767000198     0.000000000  0.000000000  0.067718561

  length of vectors
    13.675000191 13.675000191 14.767000198     0.084438795  0.084438795  0.067718561


 
 k-points in units of 2pi/SCALE and weight: Gamma points only                       
   0.00000000  0.00000000  0.00000000       1.000
 
 k-points in reciprocal lattice and weights: Gamma points only                       
   0.00000000  0.00000000  0.00000000       1.000
 
 position of ions in fractional coordinates (direct lattice) 
   0.89584582  0.10021015  0.11949381
   0.10373133  0.88883335  0.87675939
   0.89232600  0.78957517  0.12529233
   0.09174025  0.19482291  0.86721328
   0.19357937  0.10216372  0.11515249
   0.79965392  0.90571111  0.88098472
   0.55777523  0.42430566  0.45959565
   0.76271914  0.22768634  0.21722943
   0.56515452  0.14097547  0.47109645
   0.76636226  0.54331708  0.21535661
   0.86084675  0.42533693  0.46261777
   0.46495093  0.23537251  0.18263003
   0.22709637  0.77430645  0.77881794
   0.42486716  0.57034991  0.52696047
   0.22941644  0.45064053  0.77286610
   0.42957570  0.85080283  0.53089374
   0.52977434  0.75626438  0.80533671
   0.12257273  0.55848299  0.53110770
   0.97827491  0.31874631  0.16152761
   0.01453969  0.66797853  0.83720803
   0.67775963  0.67518196  0.17515937
   0.30919926  0.31579171  0.81901407
   0.31757077  0.01494207  0.17707933
   0.65952177  0.98028376  0.82916651
   0.32331682  0.98663134  0.83732950
   0.67338830  0.99773619  0.16428368
   0.66577803  0.66971344  0.81929520
   0.33040718  0.32084369  0.15902172
   0.01514785  0.33604005  0.83122491
   0.98545998  0.66586580  0.16977192
   0.64655769  0.63871356  0.50605327
   0.34186220  0.99254306  0.47461797
   0.99306914  0.33732792  0.49619406
   0.33962878  0.35269250  0.48041297
   0.98553759  0.64312421  0.50280117
   0.64996077  0.00782757  0.51596958
   0.11575663  0.24194189  0.13017499
   0.88267529  0.74931352  0.86197424
   0.76698787  0.88123348  0.11161618
   0.22683171  0.10838609  0.87143819
   0.11087372  0.88134047  0.13070510
   0.87222287  0.12418719  0.86159155
   0.77734947  0.56257816  0.45154737
   0.53423579  0.08423842  0.17493467
   0.41315991  0.20847989  0.46646864
   0.89131673  0.44721428  0.19161077
   0.78227419  0.20636614  0.45156689
   0.54725852  0.45520801  0.18908978
   0.44411519  0.89208042  0.80688275
   0.20852268  0.42686902  0.53860414
   0.11576063  0.55360627  0.80078218
   0.58104698  0.78790784  0.52254444
   0.44676864  0.53369171  0.80049206
   0.20278246  0.77445924  0.54025385
   0.99792455  0.26052166  0.99554896
   0.99733974  0.72998185  0.00184200
   0.72708954  0.71212882  0.00111492
   0.25388242  0.26561641  0.99220173
   0.26399291  0.99713108  0.00339018
   0.64247715  0.58444389  0.33386445
   0.62844281  0.04651380  0.34257286
   0.43971511  0.10747944  0.32452481
   0.93131147  0.58326734  0.33263891
   0.93512463  0.34791471  0.32922605
   0.41193308  0.32734896  0.32211143
   0.35342344  0.94566452  0.66638120
   0.34929471  0.40743214  0.65450598
   0.05755547  0.40580332  0.66380240
   0.57508864  0.89776263  0.66829694
   0.56938343  0.65937195  0.66327311
   0.05509359  0.64155452  0.66768272
   0.72880426  0.01080592  0.99582695
   0.76192824  0.47192110  0.69279356
   0.79869907  0.54447205  0.63093133
   0.99554730  0.22966422  0.10223070
   0.00084904  0.76186955  0.89575293
   0.76496174  0.76307437  0.10072293
   0.21955032  0.22096347  0.88856024
   0.22115112  0.99988468  0.10636809
   0.76726795  0.00215204  0.89070800
   0.22901167  0.99478286  0.89743713
   0.76781560  0.99789689  0.10053875
   0.22361828  0.23202923  0.09884689
   0.99463932  0.22739286  0.88999013
   0.99541696  0.76685706  0.10639936
   0.65621318  0.55206865  0.43648139
   0.43889236  0.10885430  0.43483421
   0.89198514  0.55898689  0.22713803
   0.89043973  0.32758175  0.43294339
   0.43899891  0.33419970  0.21427673
   0.88779497  0.33167252  0.22493336
   0.43086847  0.32691062  0.43051999
   0.43975918  0.11057292  0.21580756
   0.88853978  0.55222604  0.43623022
   0.65996962  0.56432201  0.22783576
   0.65478510  0.09952699  0.44220501
   0.33678577  0.90109538  0.76792814
   0.33075943  0.43700096  0.55156096
   0.10461993  0.43611578  0.76723041
   0.55851707  0.88846927  0.55911277
   0.55284622  0.65575464  0.77240745
   0.09234850  0.65852135  0.56132927
   0.55707288  0.66517834  0.55524341
   0.10568970  0.66190803  0.77017584
   0.09318219  0.42967428  0.55821672
   0.55172356  0.88121576  0.77575396
   0.33296832  0.42625618  0.76170051
   0.76900431  0.76848208  0.89426278
   0.65322336  0.09092455  0.23153041
   0.33108043  0.89766730  0.55527044
   0.55904797  0.02105693  0.03708548
   0.31896501  0.67099655  0.47890745
   0.76000691  0.56820420  0.80983658
 
 position of ions in cartesian coordinates  (Angst):
  11.56550484  1.18677848  1.76456517
  -4.65887213 10.52636233 12.94710601
   6.80383793  9.35085781  1.85019192
  -0.07755371  2.30726775 12.80613869
   1.94865351  1.20991451  1.70045682
   4.74246768 10.72624393 13.00950155
   4.72638641  5.02500847  6.78684905
   8.87337907  2.69646598  3.20782701
   6.76456842  1.66955801  6.95668141
   6.76507347  6.43444847  3.18017111
   8.86383817  5.03722174  6.83147677
   4.74884447  2.78749252  2.69689775
  -2.18877753  9.17003193 11.50080470
   1.91029094  6.75459553  7.78162542
   0.05601518  5.33688964 11.41291389
   0.05708341 10.07597076  7.83970802
   2.07370642  8.95636157 11.89240741
  -2.14244535  6.61405684  7.84286756
  11.19848160  3.77487995  2.38527830
  -4.36847303  7.91080131 12.36305120
   4.65180635  7.99611076  2.58657850
   2.06907407  3.73988884 12.09438090
   4.24061400  0.17695739  2.61493057
   2.31627001 11.60940020 12.24430208
  -2.32473432 11.68457392 12.36484492
   2.38656386 11.81608750  2.42597713
   4.52534898  7.93134763 12.09853238
   2.32454945  3.79971900  2.34827378
  -2.09052706  3.97968793 12.27469846
   8.92330798  7.88578047  2.50702203
   4.47447249  7.56421922  7.47288878
  -2.11154759 11.75458573  7.00868362
  11.27374098  3.99494005  7.32729782
   2.23288858  4.17690116  7.09425842
   9.07986493  7.61645413  7.42486497
   8.83469262  0.09270105  7.61932293
  -0.07130571  2.86529301  1.92229403
   6.94715347  8.87404329 12.72877372
   4.46312529 10.43635782  1.64823615
   2.36083378  1.28360536 12.86852793
  -4.50996742 10.43762485  1.93012218
  11.07851800  1.47073611 12.72312259
   6.78362588  6.66255553  6.66800017
   6.72969428  0.99762695  2.58326033
   4.22448059  2.46900596  6.88834243
   9.13092878  5.29631293  2.82951621
   9.28657113  2.44397307  6.66828835
   4.37127563  5.39098181  2.79228887
  -0.02632464 10.56481707 11.91523776
  -0.06716933  5.05536610  7.95356745
  -2.20225629  6.55630239 11.82515065
   2.55849757  9.33111186  7.71641392
   2.46044418  6.32045626 11.82086636
  -2.52231499  9.17184149  7.97792874
  11.86530161  3.08533131 14.70127169
   8.64737011  8.64510032  0.02720079
   5.07376870  8.43366866  0.01646406
   1.65568992  3.14566793 14.65184310
  -3.20778083 11.80892126  0.05006278
   4.78974006  6.92150907  4.93017640
   8.27591743  0.55085820  5.05877350
   5.27821361  1.27286796  4.79225799
   8.74759399  6.90757535  4.91207887
  10.40896266  4.12031822  4.86168116
   3.39493642  3.87676019  4.75661950
  -1.63291558 11.19940800  9.84045129
   1.99078792  4.82517710  9.66508998
  -1.98760913  4.80588715  9.80237010
   1.72588515 10.63211086  9.86874100
   3.27786279  7.80887444  9.79455421
  -3.63322426  7.59786444  9.85967082
   9.89251292  0.12797345 14.70537679
   7.19260823  5.58891319 10.23048262
   7.19938222  6.44812666  9.31696313
  12.04378041  2.71988981  1.50964080
  -5.19767254  9.02274307 13.22758365
   5.24333083  9.03701166  1.48737551
   1.49151288  2.61684776 13.12136918
  -3.81247006 11.84153189  1.57073766
  10.47767481  0.02548641 13.15308517
  -3.67009326 11.78111150 13.25245423
   3.67675846 11.81799063  1.48465567
   1.47148020  2.74789839  1.45967212
  12.04689427  2.69299031 13.14248441
   8.36894199  9.08180957  1.57119930
   5.19894588  6.53809250  6.44552071
   5.25756182  1.28915038  6.42119687
   8.37582413  6.62002445  3.35414739
   9.93692327  3.87951712  6.39327518
   3.71821969  3.95789278  3.16422454
   9.87278550  3.92796362  3.32159103
   3.65687500  3.87156895  6.35748882
   5.25766446  1.30950378  3.18683021
   8.37493607  6.53995639  6.44181180
   5.16653295  6.68320772  3.36445076
   8.27367059  1.17868792  6.53004146
  -1.55569432 10.67158026 11.33999506
   1.53514116  5.17535760  8.14490085
  -1.55126418  5.16487454 11.32969160
   1.56281237 10.52205054  8.25641839
   3.07644969  7.76603506 11.40614102
  -3.23977402  7.79880087  8.28914943
   3.06981479  7.87763895  8.19927951
  -3.08048948  7.83890895 11.37318682
  -1.66363148  5.08858849  8.24318642
   1.51950691 10.43614798 11.45555889
   1.63881512  5.04810831 11.24803157
   5.26163774  9.10105454 13.20557863
   8.31113298  1.07681016  3.41900967
  -1.61027525 10.63098190  8.19967877
   7.50100438  0.24937504  0.54764128
  -0.22609249  7.94654344  7.07202645
   6.50799843  6.72918413 11.95885701
 


--------------------------------------------------------------------------------------------------------


 k-point  1 :   0.0000 0.0000 0.0000  plane waves:   43405

 maximum and minimum number of plane-waves per node :     10852    10850

 maximum number of plane-waves:     43405
 maximum index in each direction: 
   IXMAX=   22   IYMAX=   22   IZMAX=   24
   IXMIN=  -22   IYMIN=  -22   IZMIN=  -24


 real space projection operators:
  total allocation   :      30559.39 KBytes
  max/ min on nodes  :       7800.48       7478.78


 parallel 3D FFT for wavefunctions:
    minimum data exchange during FFTs selected (reduces bandwidth)
 parallel 3D FFT for charge:
    minimum data exchange during FFTs selected (reduces bandwidth)


 total amount of memory used by VASP MPI-rank0   207654. kBytes
=======================================================================

   base      :      30000. kBytes
   nonlr-proj:      18644. kBytes
   fftplans  :      63994. kBytes
   grid      :      56122. kBytes
   one-center:        902. kBytes
   wavefun   :      37992. kBytes
 
     INWAV:  cpu time    0.0000: real time    0.0023
 Broyden mixing: mesh for mixing (old mesh)
   NGX = 45   NGY = 45   NGZ = 49
  (NGX  =180   NGY  =180   NGZ  =192)
  gives a total of  99225 points

 initial charge density was supplied:
 charge density of overlapping atoms calculated
 number of electron     618.0000000 magnetization     113.0000000
 keeping initial charge density in first step


--------------------------------------------------------------------------------------------------------


 Maximum index for non-local projection operator         1303
 Maximum index for augmentation-charges         7882 (set IRDMAX)


--------------------------------------------------------------------------------------------------------


 First call to EWALD:  gamma=   0.133
 Maximum number of real-space cells 3x 3x 3
 Maximum number of reciprocal cells 3x 3x 3

    FEWALD:  cpu time    0.0065: real time    0.0065


--------------------------------------- Iteration      1(   1)  ---------------------------------------


    POTLOK:  cpu time    0.5904: real time    0.6265
    SETDIJ:  cpu time    0.4611: real time    0.4622
     EDDAV:  cpu time   15.5529: real time   15.5901
       DOS:  cpu time    0.0007: real time    0.0007
    --------------------------------------------
      LOOP:  cpu time   16.6050: real time   16.6794

 eigenvalue-minimisations  :  1784
 total energy-change (2. order) : 0.4390506E+04  (-0.2581516E+05)
 number of electron     618.0000000 magnetization     113.0000000
 augmentation part      618.0000000 magnetization     113.0000000

 Free energy of the ion-electron system (eV)
  ---------------------------------------------------
  alpha Z        PSCENC =       638.83506748
  Ewald energy   TEWEN  =     -6204.16234405
  -Hartree energ DENC   =    -29013.27209202
  -exchange      EXHF   =         0.00000000
  -V(xc)+E(xc)   XCENC  =      1674.91357902
  PAW double counting   =     21998.68678651   -21319.38167188
  entropy T*S    EENTRO =        -0.03353669
  eigenvalues    EBANDS =     -2046.55371402
  atomic energy  EATOM  =     38661.47358026
  Solvation  Ediel_sol  =         0.00000000
  ---------------------------------------------------
  free energy    TOTEN  =      4390.50565461 eV

  energy without entropy =     4390.53919130  energy(sigma->0) =     4390.52242296


--------------------------------------------------------------------------------------------------------




--------------------------------------- Iteration      1(   2)  ---------------------------------------


     EDDAV:  cpu time   17.7404: real time   17.7896
       DOS:  cpu time    0.0003: real time    0.0003
    --------------------------------------------
      LOOP:  cpu time   17.7407: real time   17.7899

 eigenvalue-minimisations  :  2088
 total energy-change (2. order) :-0.4802664E+04  (-0.4618803E+04)
 number of electron     618.0000000 magnetization     113.0000000
 augmentation part      618.0000000 magnetization     113.0000000

 Free energy of the ion-electron system (eV)
  ---------------------------------------------------
  alpha Z        PSCENC =       638.83506748
  Ewald energy   TEWEN  =     -6204.16234405
  -Hartree energ DENC   =    -29013.27209202
  -exchange      EXHF   =         0.00000000
  -V(xc)+E(xc)   XCENC  =      1674.91357902
  PAW double counting   =     21998.68678651   -21319.38167188
  entropy T*S    EENTRO =        -0.00000000
  eigenvalues    EBANDS =     -6849.25087205
  atomic energy  EATOM  =     38661.47358026
  Solvation  Ediel_sol  =         0.00000000
  ---------------------------------------------------
  free energy    TOTEN  =      -412.15796674 eV

  energy without entropy =     -412.15796674  energy(sigma->0) =     -412.15796674


--------------------------------------------------------------------------------------------------------




--------------------------------------- Iteration      1(   3)  ---------------------------------------


     EDDAV:  cpu time   17.7768: real time   17.8206
       DOS:  cpu time    0.0003: real time    0.0003
    --------------------------------------------
      LOOP:  cpu time   17.7771: real time   17.8209

 eigenvalue-minimisations  :  2096
 total energy-change (2. order) :-0.5229053E+03  (-0.5190136E+03)
 number of electron     618.0000000 magnetization     113.0000000
 augmentation part      618.0000000 magnetization     113.0000000

 Free energy of the ion-electron system (eV)
  ---------------------------------------------------
  alpha Z        PSCENC =       638.83506748
  Ewald energy   TEWEN  =     -6204.16234405
  -Hartree energ DENC   =    -29013.27209202
  -exchange      EXHF   =         0.00000000
  -V(xc)+E(xc)   XCENC  =      1674.91357902
  PAW double counting   =     21998.68678651   -21319.38167188
  entropy T*S    EENTRO =        -0.00000000
  eigenvalues    EBANDS =     -7372.15618041
  atomic energy  EATOM  =     38661.47358026
  Solvation  Ediel_sol  =         0.00000000
  ---------------------------------------------------
  free energy    TOTEN  =      -935.06327510 eV

  energy without entropy =     -935.06327510  energy(sigma->0) =     -935.06327510


--------------------------------------------------------------------------------------------------------




--------------------------------------- Iteration      1(   4)  ---------------------------------------


     EDDAV:  cpu time   17.8254: real time   17.8727
       DOS:  cpu time    0.0003: real time    0.0003
    --------------------------------------------
      LOOP:  cpu time   17.8257: real time   17.8730

 eigenvalue-minimisations  :  2112
 total energy-change (2. order) :-0.1059105E+02  (-0.1055236E+02)
 number of electron     618.0000000 magnetization     113.0000000
 augmentation part      618.0000000 magnetization     113.0000000

 Free energy of the ion-electron system (eV)
  ---------------------------------------------------
  alpha Z        PSCENC =       638.83506748
  Ewald energy   TEWEN  =     -6204.16234405
  -Hartree energ DENC   =    -29013.27209202
  -exchange      EXHF   =         0.00000000
  -V(xc)+E(xc)   XCENC  =      1674.91357902
  PAW double counting   =     21998.68678651   -21319.38167188
  entropy T*S    EENTRO =        -0.00000000
  eigenvalues    EBANDS =     -7382.74722844
  atomic energy  EATOM  =     38661.47358026
  Solvation  Ediel_sol  =         0.00000000
  ---------------------------------------------------
  free energy    TOTEN  =      -945.65432312 eV

  energy without entropy =     -945.65432312  energy(sigma->0) =     -945.65432312


--------------------------------------------------------------------------------------------------------




--------------------------------------- Iteration      1(   5)  ---------------------------------------


     EDDAV:  cpu time   18.2046: real time   18.2495
       DOS:  cpu time    0.0003: real time    0.0003
    CHARGE:  cpu time    1.3183: real time    1.3214
    MIXING:  cpu time    0.0114: real time    0.0114
    --------------------------------------------
      LOOP:  cpu time   19.5346: real time   19.5827

 eigenvalue-minimisations  :  2160
 total energy-change (2. order) :-0.2833281E+00  (-0.2829622E+00)
 number of electron     618.0000004 magnetization      85.7759062
 augmentation part       70.6725992 magnetization      85.5652934

 Broyden mixing:
  rms(total) = 0.86346E+01    rms(broyden)= 0.86301E+01
  rms(prec ) = 0.94391E+01
  weight for this iteration     100.00

 Free energy of the ion-electron system (eV)
  ---------------------------------------------------
  alpha Z        PSCENC =       638.83506748
  Ewald energy   TEWEN  =     -6204.16234405
  -Hartree energ DENC   =    -29013.27209202
  -exchange      EXHF   =         0.00000000
  -V(xc)+E(xc)   XCENC  =      1674.91357902
  PAW double counting   =     21998.68678651   -21319.38167188
  entropy T*S    EENTRO =        -0.00000000
  eigenvalues    EBANDS =     -7383.03055652
  atomic energy  EATOM  =     38661.47358026
  Solvation  Ediel_sol  =         0.00000000
  ---------------------------------------------------
  free energy    TOTEN  =      -945.93765120 eV

  energy without entropy =     -945.93765120  energy(sigma->0) =     -945.93765120


--------------------------------------------------------------------------------------------------------




--------------------------------------- Iteration      1(   6)  ---------------------------------------


    POTLOK:  cpu time    0.5847: real time    0.5913
    SETDIJ:  cpu time    0.4577: real time    0.4588
     EDDAV:  cpu time   17.0830: real time   17.1245
       DOS:  cpu time    0.0003: real time    0.0003
    CHARGE:  cpu time    1.3147: real time    1.3412
    MIXING:  cpu time    0.0115: real time    0.0220
    --------------------------------------------
      LOOP:  cpu time   19.4519: real time   19.5381

 eigenvalue-minimisations  :  1996
 total energy-change (2. order) : 0.3425291E+03  (-0.7024091E+02)
 number of electron     618.0000004 magnetization      63.6963927
 augmentation part       62.9371111 magnetization      58.3272962

 Broyden mixing:
  rms(total) = 0.28088E+01    rms(broyden)= 0.28050E+01
  rms(prec ) = 0.30421E+01
  weight for this iteration     100.00

 eigenvalues of (default mixing * dielectric matrix)
  average eigenvalue GAMMA=   0.9964
  0.9964

 Free energy of the ion-electron system (eV)
  ---------------------------------------------------
  alpha Z        PSCENC =       638.83506748
  Ewald energy   TEWEN  =     -6204.16234405
  -Hartree energ DENC   =    -30386.34891564
  -exchange      EXHF   =         0.00000000
  -V(xc)+E(xc)   XCENC  =      1922.62816638
  PAW double counting   =     25735.68962691   -25079.52080149
  entropy T*S    EENTRO =        -0.00000000
  eigenvalues    EBANDS =     -5892.00289059
  atomic energy  EATOM  =     38661.47358026
  Solvation  Ediel_sol  =         0.00000000
  ---------------------------------------------------
  free energy    TOTEN  =      -603.40851074 eV

  energy without entropy =     -603.40851074  energy(sigma->0) =     -603.40851074


--------------------------------------------------------------------------------------------------------




--------------------------------------- Iteration      1(   7)  ---------------------------------------


    POTLOK:  cpu time    0.5826: real time    0.5856
    SETDIJ:  cpu time    0.4555: real time    0.4566
     EDDAV:  cpu time   17.6226: real time   17.6718
       DOS:  cpu time    0.0003: real time    0.0003
    CHARGE:  cpu time    1.3129: real time    1.3160
    MIXING:  cpu time    0.0125: real time    0.0125
    --------------------------------------------
      LOOP:  cpu time   19.9864: real time   20.0429

 eigenvalue-minimisations  :  2072
 total energy-change (2. order) :-0.8699040E+02  (-0.8580241E+01)
 number of electron     618.0000004 magnetization      45.0616769
 augmentation part       60.2601044 magnetization      40.1392749

 Broyden mixing:
  rms(total) = 0.19160E+01    rms(broyden)= 0.19153E+01
  rms(prec ) = 0.20149E+01
  weight for this iteration     100.00

 eigenvalues of (default mixing * dielectric matrix)
  average eigenvalue GAMMA=   0.9961
  0.9961  0.9961

 Free energy of the ion-electron system (eV)
  ---------------------------------------------------
  alpha Z        PSCENC =       638.83506748
  Ewald energy   TEWEN  =     -6204.16234405
  -Hartree energ DENC   =    -30817.05366140
  -exchange      EXHF   =         0.00000000
  -V(xc)+E(xc)   XCENC  =      1885.67688936
  PAW double counting   =     27123.21964711   -26469.81917499
  entropy T*S    EENTRO =        -0.00000000
  eigenvalues    EBANDS =     -5508.56891332
  atomic energy  EATOM  =     38661.47358026
  Solvation  Ediel_sol  =         0.00000000
  ---------------------------------------------------
  free energy    TOTEN  =      -690.39890956 eV

  energy without entropy =     -690.39890956  energy(sigma->0) =     -690.39890956


--------------------------------------------------------------------------------------------------------




--------------------------------------- Iteration      1(   8)  ---------------------------------------


    POTLOK:  cpu time    0.5848: real time    0.5913
    SETDIJ:  cpu time    0.4555: real time    0.4565
     EDDAV:  cpu time   17.8174: real time   17.8595
       DOS:  cpu time    0.0003: real time    0.0003
    CHARGE:  cpu time    1.3145: real time    1.3177
    MIXING:  cpu time    0.0138: real time    0.0138
    --------------------------------------------
      LOOP:  cpu time   20.1863: real time   20.2392

 eigenvalue-minimisations  :  2096
 total energy-change (2. order) :-0.6208009E+02  (-0.2544597E+01)
 number of electron     618.0000004 magnetization      21.2800085
 augmentation part       60.5344185 magnetization      17.2756885

 Broyden mixing:
  rms(total) = 0.11515E+01    rms(broyden)= 0.11513E+01
  rms(prec ) = 0.12027E+01
  weight for this iteration     100.00

 eigenvalues of (default mixing * dielectric matrix)
  average eigenvalue GAMMA=   1.3580
  2.1706  1.1907  0.7127

 Free energy of the ion-electron system (eV)
  ---------------------------------------------------
  alpha Z        PSCENC =       638.83506748
  Ewald energy   TEWEN  =     -6204.16234405
  -Hartree energ DENC   =    -30881.80636935
  -exchange      EXHF   =         0.00000000
  -V(xc)+E(xc)   XCENC  =      1843.57361032
  PAW double counting   =     27498.28908927   -26843.06679481
  entropy T*S    EENTRO =        -0.00000000
  eigenvalues    EBANDS =     -5465.61483496
  atomic energy  EATOM  =     38661.47358026
  Solvation  Ediel_sol  =         0.00000000
  ---------------------------------------------------
  free energy    TOTEN  =      -752.47899584 eV

  energy without entropy =     -752.47899584  energy(sigma->0) =     -752.47899584


--------------------------------------------------------------------------------------------------------




--------------------------------------- Iteration      1(   9)  ---------------------------------------


    POTLOK:  cpu time    0.5862: real time    0.5887
    SETDIJ:  cpu time    0.4561: real time    0.4572
     EDDAV:  cpu time   17.4661: real time   17.5076
       DOS:  cpu time    0.0003: real time    0.0003
    CHARGE:  cpu time    1.3247: real time    1.3278
    MIXING:  cpu time    0.0136: real time    0.0136
    --------------------------------------------
      LOOP:  cpu time   19.8470: real time   19.8953

 eigenvalue-minimisations  :  2052
 total energy-change (2. order) :-0.7782961E+02  (-0.5786140E+01)
 number of electron     618.0000004 magnetization      15.8976120
 augmentation part       60.5153963 magnetization      13.1499149

 Broyden mixing:
  rms(total) = 0.52225E+00    rms(broyden)= 0.52151E+00
  rms(prec ) = 0.55006E+00
  weight for this iteration     100.00

 eigenvalues of (default mixing * dielectric matrix)
  average eigenvalue GAMMA=   1.2571
  2.4112  1.2027  0.7072  0.7072

 Free energy of the ion-electron system (eV)
  ---------------------------------------------------
  alpha Z        PSCENC =       638.83506748
  Ewald energy   TEWEN  =     -6204.16234405
  -Hartree energ DENC   =    -31000.33615882
  -exchange      EXHF   =         0.00000000
  -V(xc)+E(xc)   XCENC  =      1796.08669513
  PAW double counting   =     27952.32399978   -27296.11041986
  entropy T*S    EENTRO =        -0.00000000
  eigenvalues    EBANDS =     -5378.41902399
  atomic energy  EATOM  =     38661.47358026
  Solvation  Ediel_sol  =         0.00000000
  ---------------------------------------------------
  free energy    TOTEN  =      -830.30860407 eV

  energy without entropy =     -830.30860407  energy(sigma->0) =     -830.30860407


--------------------------------------------------------------------------------------------------------




--------------------------------------- Iteration      1(  10)  ---------------------------------------


    POTLOK:  cpu time    0.5872: real time    0.5943
    SETDIJ:  cpu time    0.4560: real time    0.4571
     EDDAV:  cpu time   17.8245: real time   17.8666
       DOS:  cpu time    0.0003: real time    0.0003
    CHARGE:  cpu time    1.3142: real time    1.3174
    MIXING:  cpu time    0.0140: real time    0.0140
    --------------------------------------------
      LOOP:  cpu time   20.1962: real time   20.2497

 eigenvalue-minimisations  :  2104
 total energy-change (2. order) :-0.1268430E+02  (-0.7093791E+00)
 number of electron     618.0000004 magnetization       9.5673614
 augmentation part       60.1419073 magnetization       7.2892215

 Broyden mixing:
  rms(total) = 0.36030E+00    rms(broyden)= 0.35986E+00
  rms(prec ) = 0.38105E+00
  weight for this iteration     100.00

 eigenvalues of (default mixing * dielectric matrix)
  average eigenvalue GAMMA=   1.2734
  2.5526  1.4813  0.8357  0.8357  0.6615

 Free energy of the ion-electron system (eV)
  ---------------------------------------------------
  alpha Z        PSCENC =       638.83506748
  Ewald energy   TEWEN  =     -6204.16234405
  -Hartree energ DENC   =    -31017.95993934
  -exchange      EXHF   =         0.00000000
  -V(xc)+E(xc)   XCENC  =      1789.59422740
  PAW double counting   =     27969.30152856   -27313.28260843
  entropy T*S    EENTRO =        -0.00000000
  eigenvalues    EBANDS =     -5366.79241565
  atomic energy  EATOM  =     38661.47358026
  Solvation  Ediel_sol  =         0.00000000
  ---------------------------------------------------
  free energy    TOTEN  =      -842.99290377 eV

  energy without entropy =     -842.99290377  energy(sigma->0) =     -842.99290377


--------------------------------------------------------------------------------------------------------




--------------------------------------- Iteration      1(  11)  ---------------------------------------


    POTLOK:  cpu time    0.5868: real time    0.5907
    SETDIJ:  cpu time    0.4558: real time    0.4569
     EDDAV:  cpu time   16.7363: real time   16.7766
       DOS:  cpu time    0.0003: real time    0.0003
    CHARGE:  cpu time    1.3081: real time    1.3112
    MIXING:  cpu time    0.0141: real time    0.0142
    --------------------------------------------
      LOOP:  cpu time   19.1015: real time   19.1500

 eigenvalue-minimisations  :  1948
 total energy-change (2. order) :-0.1287509E+02  (-0.6737627E+00)
 number of electron     618.0000004 magnetization       5.2043605
 augmentation part       60.1215733 magnetization       3.3453516

 Broyden mixing:
  rms(total) = 0.20185E+00    rms(broyden)= 0.20152E+00
  rms(prec ) = 0.22129E+00
  weight for this iteration     100.00

 eigenvalues of (default mixing * dielectric matrix)
  average eigenvalue GAMMA=   1.3796
  3.0468  1.8596  1.1489  0.7787  0.7787  0.6649

 Free energy of the ion-electron system (eV)
  ---------------------------------------------------
  alpha Z        PSCENC =       638.83506748
  Ewald energy   TEWEN  =     -6204.16234405
  -Hartree energ DENC   =    -30986.52052983
  -exchange      EXHF   =         0.00000000
  -V(xc)+E(xc)   XCENC  =      1779.37739675
  PAW double counting   =     27840.32286073   -27183.84202063
  entropy T*S    EENTRO =        -0.00000000
  eigenvalues    EBANDS =     -5401.35200535
  atomic energy  EATOM  =     38661.47358026
  Solvation  Ediel_sol  =         0.00000000
  ---------------------------------------------------
  free energy    TOTEN  =      -855.86799464 eV

  energy without entropy =     -855.86799464  energy(sigma->0) =     -855.86799464


--------------------------------------------------------------------------------------------------------




--------------------------------------- Iteration      1(  12)  ---------------------------------------


    POTLOK:  cpu time    0.5884: real time    0.5937
    SETDIJ:  cpu time    0.4540: real time    0.4551
     EDDAV:  cpu time   16.3948: real time   16.4338
       DOS:  cpu time    0.0003: real time    0.0003
    CHARGE:  cpu time    1.3079: real time    1.3110
    MIXING:  cpu time    0.0150: real time    0.0151
    --------------------------------------------
      LOOP:  cpu time   18.7604: real time   18.8090

 eigenvalue-minimisations  :  1904
 total energy-change (2. order) :-0.6119697E+01  (-0.3320295E+00)
 number of electron     618.0000004 magnetization       3.3282836
 augmentation part       60.0580933 magnetization       1.6878197

 Broyden mixing:
  rms(total) = 0.10715E+00    rms(broyden)= 0.10693E+00
  rms(prec ) = 0.12315E+00
  weight for this iteration     100.00

 eigenvalues of (default mixing * dielectric matrix)
  average eigenvalue GAMMA=   1.3937
  3.5083  2.1792  1.1522  0.7265  0.7265  0.7987  0.6641

 Free energy of the ion-electron system (eV)
  ---------------------------------------------------
  alpha Z        PSCENC =       638.83506748
  Ewald energy   TEWEN  =     -6204.16234405
  -Hartree energ DENC   =    -30965.21577840
  -exchange      EXHF   =         0.00000000
  -V(xc)+E(xc)   XCENC  =      1774.17431282
  PAW double counting   =     27773.85818056   -27117.34089004
  entropy T*S    EENTRO =        -0.00000000
  eigenvalues    EBANDS =     -5423.60982069
  atomic energy  EATOM  =     38661.47358026
  Solvation  Ediel_sol  =         0.00000000
  ---------------------------------------------------
  free energy    TOTEN  =      -861.98769206 eV

  energy without entropy =     -861.98769206  energy(sigma->0) =     -861.98769206


--------------------------------------------------------------------------------------------------------




--------------------------------------- Iteration      1(  13)  ---------------------------------------


    POTLOK:  cpu time    0.5877: real time    0.5909
    SETDIJ:  cpu time    0.4536: real time    0.4547
     EDDAV:  cpu time   16.6193: real time   16.6653
       DOS:  cpu time    0.0003: real time    0.0003
    CHARGE:  cpu time    1.3043: real time    1.3074
    MIXING:  cpu time    0.0164: real time    0.0164
    --------------------------------------------
      LOOP:  cpu time   18.9815: real time   19.0350

 eigenvalue-minimisations  :  1928
 total energy-change (2. order) :-0.1588508E+01  (-0.6984421E-01)
 number of electron     618.0000004 magnetization       2.5232432
 augmentation part       60.0822556 magnetization       0.9880213

 Broyden mixing:
  rms(total) = 0.51787E-01    rms(broyden)= 0.51688E-01
  rms(prec ) = 0.64496E-01
  weight for this iteration     100.00

 eigenvalues of (default mixing * dielectric matrix)
  average eigenvalue GAMMA=   1.4167
  3.8142  2.3071  1.3048  1.0375  0.7254  0.7254  0.7718  0.6476

 Free energy of the ion-electron system (eV)
  ---------------------------------------------------
  alpha Z        PSCENC =       638.83506748
  Ewald energy   TEWEN  =     -6204.16234405
  -Hartree energ DENC   =    -30941.86244454
  -exchange      EXHF   =         0.00000000
  -V(xc)+E(xc)   XCENC  =      1771.87554096
  PAW double counting   =     27726.69396875   -27070.10910037
  entropy T*S    EENTRO =        -0.00000000
  eigenvalues    EBANDS =     -5446.32046837
  atomic energy  EATOM  =     38661.47358026
  Solvation  Ediel_sol  =         0.00000000
  ---------------------------------------------------
  free energy    TOTEN  =      -863.57619988 eV

  energy without entropy =     -863.57619988  energy(sigma->0) =     -863.57619988


--------------------------------------------------------------------------------------------------------




--------------------------------------- Iteration      1(  14)  ---------------------------------------


    POTLOK:  cpu time    0.5868: real time    0.5929
    SETDIJ:  cpu time    0.4552: real time    0.4563
     EDDAV:  cpu time   17.1551: real time   17.1960
       DOS:  cpu time    0.0003: real time    0.0003
    CHARGE:  cpu time    1.3092: real time    1.3127
    MIXING:  cpu time    0.0167: real time    0.0168
    --------------------------------------------
      LOOP:  cpu time   19.5233: real time   19.5749

 eigenvalue-minimisations  :  2008
 total energy-change (2. order) :-0.2314841E+00  (-0.9837320E-02)
 number of electron     618.0000004 magnetization       2.2504306
 augmentation part       60.0978041 magnetization       0.7527001

 Broyden mixing:
  rms(total) = 0.34054E-01    rms(broyden)= 0.34013E-01
  rms(prec ) = 0.42620E-01
  weight for this iteration     100.00

 eigenvalues of (default mixing * dielectric matrix)
  average eigenvalue GAMMA=   1.3789
  3.9398  2.3863  1.4336  1.0342  0.7342  0.7342  0.7585  0.7585  0.6310

 Free energy of the ion-electron system (eV)
  ---------------------------------------------------
  alpha Z        PSCENC =       638.83506748
  Ewald energy   TEWEN  =     -6204.16234405
  -Hartree energ DENC   =    -30928.27294932
  -exchange      EXHF   =         0.00000000
  -V(xc)+E(xc)   XCENC  =      1771.12552422
  PAW double counting   =     27722.26581676   -27065.73438499
  entropy T*S    EENTRO =        -0.00000000
  eigenvalues    EBANDS =     -5459.33799438
  atomic energy  EATOM  =     38661.47358026
  Solvation  Ediel_sol  =         0.00000000
  ---------------------------------------------------
  free energy    TOTEN  =      -863.80768403 eV

  energy without entropy =     -863.80768403  energy(sigma->0) =     -863.80768403


--------------------------------------------------------------------------------------------------------




--------------------------------------- Iteration      1(  15)  ---------------------------------------


    POTLOK:  cpu time    0.5862: real time    0.5912
    SETDIJ:  cpu time    0.4564: real time    0.4574
     EDDAV:  cpu time   16.9935: real time   17.0338
       DOS:  cpu time    0.0003: real time    0.0003
    CHARGE:  cpu time    1.3102: real time    1.3133
    MIXING:  cpu time    0.0158: real time    0.0158
    --------------------------------------------
      LOOP:  cpu time   19.3623: real time   19.4118

 eigenvalue-minimisations  :  1992
 total energy-change (2. order) :-0.2968589E-01  (-0.9698079E-03)
 number of electron     618.0000004 magnetization       2.0676705
 augmentation part       60.0921252 magnetization       0.5826876

 Broyden mixing:
  rms(total) = 0.18575E-01    rms(broyden)= 0.18559E-01
  rms(prec ) = 0.25356E-01
  weight for this iteration     100.00

 eigenvalues of (default mixing * dielectric matrix)
  average eigenvalue GAMMA=   1.4100
  3.9815  2.3602  1.8149  1.1601  1.0264  1.0264  0.7054  0.7054  0.6344  0.6856

 Free energy of the ion-electron system (eV)
  ---------------------------------------------------
  alpha Z        PSCENC =       638.83506748
  Ewald energy   TEWEN  =     -6204.16234405
  -Hartree energ DENC   =    -30923.13134105
  -exchange      EXHF   =         0.00000000
  -V(xc)+E(xc)   XCENC  =      1770.93026134
  PAW double counting   =     27725.90988221   -27069.42795208
  entropy T*S    EENTRO =        -0.00000000
  eigenvalues    EBANDS =     -5464.26452402
  atomic energy  EATOM  =     38661.47358026
  Solvation  Ediel_sol  =         0.00000000
  ---------------------------------------------------
  free energy    TOTEN  =      -863.83736991 eV

  energy without entropy =     -863.83736991  energy(sigma->0) =     -863.83736991


--------------------------------------------------------------------------------------------------------




--------------------------------------- Iteration      1(  16)  ---------------------------------------


    POTLOK:  cpu time    0.5865: real time    0.5929
    SETDIJ:  cpu time    0.4591: real time    0.4602
     EDDAV:  cpu time   16.8749: real time   16.9152
       DOS:  cpu time    0.0003: real time    0.0003
    CHARGE:  cpu time    1.3116: real time    1.3148
    MIXING:  cpu time    0.0173: real time    0.0173
    --------------------------------------------
      LOOP:  cpu time   19.2498: real time   19.3007

 eigenvalue-minimisations  :  1976
 total energy-change (2. order) :-0.1692299E-01  (-0.7848990E-03)
 number of electron     618.0000004 magnetization       2.0407263
 augmentation part       60.0889540 magnetization       0.5666115

 Broyden mixing:
  rms(total) = 0.93446E-02    rms(broyden)= 0.93324E-02
  rms(prec ) = 0.13002E-01
  weight for this iteration     100.00

 eigenvalues of (default mixing * dielectric matrix)
  average eigenvalue GAMMA=   1.4101
  3.9894  2.4395  2.4395  1.1121  1.1121  0.7048  0.7048  0.8492  0.8492  0.6757
  0.6343

 Free energy of the ion-electron system (eV)
  ---------------------------------------------------
  alpha Z        PSCENC =       638.83506748
  Ewald energy   TEWEN  =     -6204.16234405
  -Hartree energ DENC   =    -30917.03725344
  -exchange      EXHF   =         0.00000000
  -V(xc)+E(xc)   XCENC  =      1770.74395464
  PAW double counting   =     27733.96399615   -27077.50266031
  entropy T*S    EENTRO =        -0.00000000
  eigenvalues    EBANDS =     -5470.16863363
  atomic energy  EATOM  =     38661.47358026
  Solvation  Ediel_sol  =         0.00000000
  ---------------------------------------------------
  free energy    TOTEN  =      -863.85429290 eV

  energy without entropy =     -863.85429290  energy(sigma->0) =     -863.85429290


--------------------------------------------------------------------------------------------------------




--------------------------------------- Iteration      1(  17)  ---------------------------------------


    POTLOK:  cpu time    0.5865: real time    0.5893
    SETDIJ:  cpu time    0.4558: real time    0.4569
     EDDAV:  cpu time   17.3710: real time   17.4126
       DOS:  cpu time    0.0003: real time    0.0003
    CHARGE:  cpu time    1.2930: real time    1.2961
    MIXING:  cpu time    0.0187: real time    0.0187
    --------------------------------------------
      LOOP:  cpu time   19.7253: real time   19.7739

 eigenvalue-minimisations  :  2048
 total energy-change (2. order) :-0.1990443E-04  (-0.1566252E-03)
 number of electron     618.0000004 magnetization       2.0179379
 augmentation part       60.0876436 magnetization       0.5439126

 Broyden mixing:
  rms(total) = 0.59238E-02    rms(broyden)= 0.59196E-02
  rms(prec ) = 0.84178E-02
  weight for this iteration     100.00

 eigenvalues of (default mixing * dielectric matrix)
  average eigenvalue GAMMA=   1.3792
  4.0173  2.5322  2.5322  1.1897  1.0148  0.8605  0.8605  0.7123  0.7123  0.7987
  0.6859  0.6339

 Free energy of the ion-electron system (eV)
  ---------------------------------------------------
  alpha Z        PSCENC =       638.83506748
  Ewald energy   TEWEN  =     -6204.16234405
  -Hartree energ DENC   =    -30914.99445070
  -exchange      EXHF   =         0.00000000
  -V(xc)+E(xc)   XCENC  =      1770.70105095
  PAW double counting   =     27738.51660571   -27082.06100021
  entropy T*S    EENTRO =        -0.00000000
  eigenvalues    EBANDS =     -5472.16282225
  atomic energy  EATOM  =     38661.47358026
  Solvation  Ediel_sol  =         0.00000000
  ---------------------------------------------------
  free energy    TOTEN  =      -863.85431280 eV

  energy without entropy =     -863.85431280  energy(sigma->0) =     -863.85431280


--------------------------------------------------------------------------------------------------------




--------------------------------------- Iteration      1(  18)  ---------------------------------------


    POTLOK:  cpu time    0.5883: real time    0.5938
    SETDIJ:  cpu time    0.4568: real time    0.4579
     EDDAV:  cpu time   16.8919: real time   16.9321
       DOS:  cpu time    0.0003: real time    0.0003
    CHARGE:  cpu time    1.2847: real time    1.2883
    MIXING:  cpu time    0.0174: real time    0.0174
    --------------------------------------------
      LOOP:  cpu time   19.2394: real time   19.2899

 eigenvalue-minimisations  :  1984
 total energy-change (2. order) :-0.4537123E-02  (-0.9001099E-04)
 number of electron     618.0000004 magnetization       2.0056819
 augmentation part       60.0899245 magnetization       0.5328587

 Broyden mixing:
  rms(total) = 0.30367E-02    rms(broyden)= 0.30316E-02
  rms(prec ) = 0.51279E-02
  weight for this iteration     100.00

 eigenvalues of (default mixing * dielectric matrix)
  average eigenvalue GAMMA=   1.4269
  4.0305  2.7905  2.7347  1.5448  1.0757  1.0757  0.9479  0.9479  0.7056  0.7056
  0.6836  0.6836  0.6241

 Free energy of the ion-electron system (eV)
  ---------------------------------------------------
  alpha Z        PSCENC =       638.83506748
  Ewald energy   TEWEN  =     -6204.16234405
  -Hartree energ DENC   =    -30913.42008882
  -exchange      EXHF   =         0.00000000
  -V(xc)+E(xc)   XCENC  =      1770.65348153
  PAW double counting   =     27738.63863867   -27082.17684481
  entropy T*S    EENTRO =        -0.00000000
  eigenvalues    EBANDS =     -5473.70034018
  atomic energy  EATOM  =     38661.47358026
  Solvation  Ediel_sol  =         0.00000000
  ---------------------------------------------------
  free energy    TOTEN  =      -863.85884993 eV

  energy without entropy =     -863.85884993  energy(sigma->0) =     -863.85884993


--------------------------------------------------------------------------------------------------------




--------------------------------------- Iteration      1(  19)  ---------------------------------------


    POTLOK:  cpu time    0.5864: real time    0.5900
    SETDIJ:  cpu time    0.4577: real time    0.4588
     EDDAV:  cpu time   16.8479: real time   16.8957
       DOS:  cpu time    0.0003: real time    0.0003
    CHARGE:  cpu time    1.3124: real time    1.3155
    MIXING:  cpu time    0.0185: real time    0.0186
    --------------------------------------------
      LOOP:  cpu time   19.2232: real time   19.2789

 eigenvalue-minimisations  :  1968
 total energy-change (2. order) :-0.3269006E-02  (-0.7834019E-04)
 number of electron     618.0000004 magnetization       2.0028549
 augmentation part       60.0907453 magnetization       0.5303640

 Broyden mixing:
  rms(total) = 0.27803E-02    rms(broyden)= 0.27761E-02
  rms(prec ) = 0.38332E-02
  weight for this iteration     100.00

 eigenvalues of (default mixing * dielectric matrix)
  average eigenvalue GAMMA=   1.4008
  4.0273  3.0227  2.6893  1.7214  1.1703  0.9324  0.9324  0.8431  0.8431  0.7083
  0.7083  0.7079  0.6817  0.6231

 Free energy of the ion-electron system (eV)
  ---------------------------------------------------
  alpha Z        PSCENC =       638.83506748
  Ewald energy   TEWEN  =     -6204.16234405
  -Hartree energ DENC   =    -30911.70424113
  -exchange      EXHF   =         0.00000000
  -V(xc)+E(xc)   XCENC  =      1770.61796363
  PAW double counting   =     27739.40756881   -27082.93613988
  entropy T*S    EENTRO =        -0.00000000
  eigenvalues    EBANDS =     -5475.39357404
  atomic energy  EATOM  =     38661.47358026
  Solvation  Ediel_sol  =         0.00000000
  ---------------------------------------------------
  free energy    TOTEN  =      -863.86211893 eV

  energy without entropy =     -863.86211893  energy(sigma->0) =     -863.86211893


--------------------------------------------------------------------------------------------------------




--------------------------------------- Iteration      1(  20)  ---------------------------------------


[...]
      -0.008171971062488       0.014268953858581       0.000694724745709
       0.005817121588415       0.001511551790447       0.005580653839041
       0.001541730120517      -0.001830583417489      -0.000310082099255
      -0.000612100823888       0.003435336297506       0.000873770767650
      -0.001761655053319       0.003883466219061       0.007365244791749
      -0.009203999075611       0.004916432430950       0.006213094027642
       0.002437452328726       0.000260633185748       0.000898416554619
       0.001320223868944       0.003948238644554      -0.002517117302816
      -0.001533668417202       0.002843166002620      -0.003197894327155
      -0.005314324638253       0.003722620076427      -0.000726265984739
      -0.001058574981555       0.001435618984767      -0.000576384093185
      -0.009791909615278       0.014975953125957      -0.002798266842681
      -0.004631166223359       0.003525250018498      -0.000021031066815
       0.001020402140302       0.004447868274901       0.000156919680519
       0.008154365989680       0.001273091022191      -0.006782346708294
      -0.001138104300789       0.003238645036168       0.004705259031669
      -0.001942679286686      -0.003879934632731       0.001838604845819
      -0.000824433005407       0.001678448101821      -0.001263236143023
      -0.002731791498216       0.004615122314049      -0.000209388524793
       0.001897064310831       0.002539401748070       0.001222362064059
       0.001147396294161      -0.000428314406226       0.000683308758503
      -0.021947244281736       0.012155076701834      -0.007873259840238
       0.000677728272945       0.000584076911679       0.000753509022888
       0.000210525736527       0.002962167632424      -0.004197702197438
       0.001592057839835       0.004184065508643      -0.001336749147771
       0.003649656794701       0.000635230256823       0.002753313261752
      -0.000481831086574       0.003571113183124       0.000373296466655
      -0.005070795006690       0.004072617999346       0.000189832666660
      -0.000080127523220       0.004997253180885       0.000371546239992
      -0.011514580408996      -0.004606365941662       0.005538012118254
      -0.001595087747546       0.002620058942001       0.001247340555387
       0.003429730274022       0.003134292238745      -0.000110823941908
       0.024889413246368       0.027120884021827       0.016007342505943
       0.005672344876833       0.005164366342621       0.005512041941782
       0.004876256529326      -0.000522593707164       0.000290927987957
       0.000410848218996       0.005207840340795       0.006183353233734
      -0.002037277062067       0.002419656587746       0.001026441040189
       0.005187106275436       0.004401376557923       0.008602225481937
      -0.001117581823652       0.001006533961460       0.002020813749244
       0.002624899330608      -0.001593667207317       0.000572353229727
      -0.003316116929434      -0.001538906183907       0.002203208727859
      -0.003854964562963       0.001626196750042       0.001919208748254
      -0.000379168400993      -0.002626467086730      -0.001583226181913
      -0.003780948849175      -0.000350399941866      -0.000363543172350
      -0.000327571070808       0.002040864031173      -0.003705643107009
      -0.002891819105209      -0.000109356375056      -0.002642201488397
      -0.001374370240279       0.004808681457099      -0.003416781746622
      -0.006043944796537      -0.009010662621031      -0.004942462765765
      -0.009804917515636      -0.010353959824766       0.002914503249132
       0.000011300825040       0.004332104137341       0.003378413341364
       0.012093091459170       0.005019289446955       0.012438442235091
      -0.010025190975787       0.005660810836780       0.017691821694720
       0.000668249418120       0.002399765546696       0.005340359909811
      -0.001560715783500      -0.000295477467975       0.004916550477187
      -0.006664144630037      -0.001101202596828      -0.003238450486333
       0.000044668864526       0.001616386472577       0.000002900872738
      -0.000861174832953       0.000250872394668      -0.004739459726843
       0.005065038823617       0.001308348213360       0.000428602446642
      -0.002668788634014       0.002433778163157      -0.000843964069046
       0.003417282891870       0.004312061621805      -0.007955667909802
       0.000070349788919       0.001049091024383      -0.001023838263019
      -0.002435913057309       0.001302711410022      -0.006970893162802
      -0.001290276324745       0.002416846341282      -0.000021919167022
      -0.001022204066418       0.001901203548643      -0.005947698523109
      -0.002404069744039       0.000921354781959      -0.019583780183386
      -0.010054495140039      -0.004022894467718      -0.002194076602692
      -0.001304592745155       0.001292530378903       0.004356069454605
       0.035523383588239      -0.028133289939991      -0.187147415884212
       0.015684449576923      -0.247298716450636       0.130320830620780
      -0.001372186112535       0.005770460661139      -0.003007151305357
      -0.034905469653163      -0.003953364272880      -0.013617406227555
      -0.003514088803244      -0.002494253502390      -0.014832640114723
      -0.000765016547829       0.004621005275782      -0.004372024410956
      -0.002744609653515       0.000341003827178      -0.002249961833439
       0.009471856243927      -0.009465512147688      -0.002278593082907
      -0.005971490599561      -0.002530106341991      -0.004500972890583
       0.000931934833121       0.002588403939656      -0.001174678296490
      -0.002862082972411       0.005072898126476      -0.003963868195101
       0.001853133925392      -0.001397821993558      -0.000183425483645
      -0.001006239880520      -0.004362070860314      -0.006794743205811
      -0.008124037945220       0.003564296727149      -0.014891850102085
      -0.004240617754231       0.000207101933946       0.001293628262689
      -0.000745936214631       0.001245098515259       0.000716043637716
       0.005091043971062      -0.002058599968360      -0.003120248792522
       0.001321570115623       0.005840583029728       0.001555683965250
      -0.000071778385633       0.002994590670653      -0.002502876662414
      -0.001738807522053       0.002794719390750       0.000529828770547
       0.002636654603949       0.001500416476001       0.001027514684931
       0.003261606946727       0.011067549710681      -0.025440059894064
      -0.000497483250373       0.004898507172775       0.001154848091189
       0.000223629808008       0.000427658423830      -0.000517120849728
       0.001006219784779      -0.003119959996301       0.004039588637373
      -0.000029301009234       0.000388002453078       0.001476305871153
       0.005552581258882       0.000344859342022       0.004180885029736
      -0.000149045031376       0.000287248015665       0.004670494289358
       0.031452835211577       0.006329762524434       0.020855375395364
       0.017266747277545       0.015790887939842      -0.006297057724100
      -0.004740435267163       0.001875730564997       0.011543987378860
      -0.005047329345642       0.005452195632157       0.016402889461179
       0.002338906853238       0.000691764449534      -0.002115681614867
       0.007676424714132      -0.012811910545902       0.007139373566075
       0.005536130979170       0.012226909457943       0.005156923081633
       0.007004592097547      -0.022276248283323      -0.014808789857220
       0.001643128977905      -0.000352121726325      -0.001374727411455
       0.000697361260709       0.003071743013003       0.003191228999042
       0.001230202557731      -0.001717726026689       0.000072419190377
      -0.000870284159915       0.002335015241644      -0.000734294610326
      -0.023210243308346       0.066803568575533       0.065098713531902
DYMAT: ------------------------------
DYMAT: DEGREE OF FREEDOM  73  1  1
DYMAT: ------------------------------
DYMAT: DEGREE OF FREEDOM  73  2  2
DYMAT: ------------------------------
DYMAT: DEGREE OF FREEDOM  73  3  3
DYMAT: ------------------------------
DYMAT: DEGREE OF FREEDOM  74  1  4
DYMAT: ------------------------------
DYMAT: DEGREE OF FREEDOM  74  2  5
DYMAT: ------------------------------
DYMAT: DEGREE OF FREEDOM  74  3  6
DYMAT: LEAVING
 stress matrix after NEB project (eV)
    -24.96846     -0.33569     -0.09361
     -0.33569    -23.11115     -0.47446
     -0.09361     -0.47446    -25.07141
  FORCES: max atom, RMS     0.279975    0.035039
  FORCE total and by dimension    0.372470    0.247299
  Stress total and by dimension   42.270768   25.071408


--------------------------------------------------------------------------------------------------------


     LOOP+:  cpu time  203.5883: real time  204.2015
    4ORBIT:  cpu time    0.0000: real time    0.0000
 


 total charge     
 
# of ion       s       p       d       tot
------------------------------------------
    1        1.573   3.699   0.000   5.272
    2        1.572   3.705   0.000   5.277
    3        1.575   3.707   0.000   5.282
    4        1.573   3.693   0.000   5.266
    5        1.572   3.702   0.000   5.274
    6        1.575   3.670   0.000   5.245
    7        1.577   3.698   0.000   5.275
    8        1.575   3.674   0.000   5.248
    9        1.577   3.671   0.000   5.249
   10        1.569   3.704   0.000   5.273
   11        1.575   3.690   0.000   5.265
   12        1.576   3.688   0.000   5.264
   13        1.569   3.715   0.000   5.285
   14        1.574   3.657   0.000   5.231
   15        1.571   3.719   0.000   5.290
   16        1.575   3.635   0.000   5.210
   17        1.574   3.686   0.000   5.261
   18        1.575   3.666   0.000   5.241
   19        1.574   3.704   0.000   5.279
   20        1.576   3.694   0.000   5.270
   21        1.578   3.702   0.000   5.280
   22        1.574   3.702   0.000   5.275
   23        1.577   3.703   0.000   5.280
   24        1.575   3.700   0.000   5.275
   25        1.575   3.700   0.000   5.275
   26        1.580   3.657   0.000   5.237
   27        1.574   3.650   0.000   5.224
   28        1.574   3.703   0.000   5.277
   29        1.575   3.712   0.000   5.287
   30        1.576   3.705   0.000   5.281
   31        1.575   3.707   0.000   5.282
   32        1.579   3.668   0.000   5.247
   33        1.576   3.699   0.000   5.276
   34        1.575   3.702   0.000   5.277
   35        1.577   3.703   0.000   5.280
   36        1.576   3.696   0.000   5.272
   37        1.573   3.710   0.000   5.283
   38        1.577   3.648   0.000   5.224
   39        1.570   3.738   0.000   5.308
   40        1.570   3.722   0.000   5.292
   41        1.572   3.723   0.000   5.295
   42        1.574   3.707   0.000   5.281
   43        1.570   3.732   0.000   5.302
   44        1.574   3.635   0.000   5.209
   45        1.577   3.700   0.000   5.278
   46        1.574   3.703   0.000   5.277
   47        1.570   3.723   0.000   5.293
   48        1.574   3.706   0.000   5.279
   49        1.574   3.698   0.000   5.272
   50        1.570   3.716   0.000   5.286
   51        1.575   3.710   0.000   5.285
   52        1.577   3.689   0.000   5.266
   53        1.575   3.701   0.000   5.276
   54        1.576   3.676   0.000   5.252
   55        1.574   3.707   0.000   5.280
   56        1.575   3.701   0.000   5.276
   57        1.581   3.656   0.000   5.237
   58        1.574   3.692   0.000   5.266
   59        1.575   3.688   0.000   5.263
   60        1.576   3.703   0.000   5.279
   61        1.578   3.660   0.000   5.238
   62        1.568   3.725   0.000   5.293
   63        1.576   3.702   0.000   5.278
   64        1.576   3.690   0.000   5.266
   65        1.569   3.709   0.000   5.278
   66        1.577   3.658   0.000   5.235
   67        1.573   3.691   0.000   5.265
   68        1.576   3.700   0.000   5.276
   69        1.570   3.719   0.000   5.288
   70        1.570   3.721   0.000   5.291
   71        1.575   3.694   0.000   5.269
   72        1.576   3.656   0.000   5.231
   73        1.628   3.307   0.000   4.935
   74        1.646   3.247   0.000   4.893
   75        0.639   0.990   0.000   1.629
   76        0.645   0.996   0.000   1.641
   77        0.647   1.006   0.000   1.654
   78        0.637   0.983   0.000   1.619
   79        0.640   0.992   0.000   1.633
   80        0.646   0.994   0.000   1.640
   81        0.639   0.989   0.000   1.628
   82        0.645   0.997   0.000   1.642
   83        0.637   0.983   0.000   1.621
   84        0.640   0.991   0.000   1.631
   85        0.641   0.998   0.000   1.639
   86        0.642   1.002   0.000   1.644
   87        0.645   0.993   0.000   1.638
   88        0.640   0.989   0.000   1.629
   89        0.640   0.989   0.000   1.629
   90        0.638   0.985   0.000   1.623
   91        0.644   0.994   0.000   1.637
   92        0.641   0.991   0.000   1.632
   93        0.645   0.996   0.000   1.641
   94        0.642   0.997   0.000   1.638
   95        0.640   0.989   0.000   1.629
   96        0.644   0.989   0.000   1.633
   97        0.643   0.989   0.000   1.632
   98        0.638   0.979   0.000   1.617
   99        0.641   0.997   0.000   1.638
  100        0.645   0.991   0.000   1.636
  101        0.643   0.991   0.000   1.634
  102        0.647   0.997   0.000   1.643
  103        0.641   0.987   0.000   1.628
  104        0.641   0.994   0.000   1.635
  105        0.642   0.990   0.000   1.632
  106        0.639   0.988   0.000   1.627
  107        0.638   0.987   0.000   1.625
  108        0.344   0.457   0.000   0.801
  109        0.342   0.455   0.000   0.797
  110        0.340   0.454   0.000   0.794
  111        0.114   0.065   9.210   9.389
  112        0.122   0.079   9.212   9.413
  113        0.152   0.106   9.140   9.398
--------------------------------------------------
tot        139.218 306.885  27.562 473.666
 


 magnetization (x)
 
# of ion       s       p       d       tot
------------------------------------------
    1       -0.000   0.000   0.000   0.000
    2        0.000   0.000   0.000   0.000
    3        0.000   0.000   0.000   0.000
    4       -0.000   0.000   0.000   0.000
    5       -0.000   0.000   0.000   0.000
    6        0.000   0.000   0.000   0.000
    7       -0.000  -0.000   0.000  -0.000
    8        0.000   0.000   0.000   0.000
    9       -0.000  -0.000   0.000  -0.000
   10       -0.000   0.000   0.000   0.000
   11        0.000   0.001   0.000   0.001
   12        0.000   0.000   0.000   0.000
   13        0.000   0.000   0.000   0.000
   14        0.000   0.000   0.000   0.000
   15       -0.000  -0.000   0.000  -0.000
   16       -0.000   0.000   0.000   0.000
   17        0.000   0.000   0.000   0.001
   18        0.000   0.000   0.000   0.000
   19        0.000   0.000   0.000   0.000
   20        0.000   0.002   0.000   0.002
   21        0.000   0.000   0.000   0.000
   22        0.000   0.000   0.000   0.000
   23        0.000   0.000   0.000   0.000
   24        0.000   0.000   0.000   0.000
   25        0.000   0.000   0.000   0.000
   26       -0.000   0.000   0.000   0.000
   27        0.000   0.006   0.000   0.006
   28       -0.000   0.000   0.000   0.000
   29       -0.000   0.000   0.000   0.000
   30        0.000   0.000   0.000   0.000
   31        0.000   0.001   0.000   0.001
   32        0.000   0.000   0.000   0.000
   33       -0.000   0.000   0.000   0.000
   34       -0.000  -0.000   0.000  -0.000
   35        0.000   0.005   0.000   0.005
   36        0.000   0.000   0.000   0.000
   37       -0.000   0.000   0.000   0.000
   38        0.000   0.002   0.000   0.002
   39       -0.000  -0.000   0.000  -0.000
   40        0.000   0.000   0.000   0.000
   41        0.000   0.000   0.000   0.000
   42        0.000   0.000   0.000   0.000
   43        0.000   0.009   0.000   0.009
   44       -0.000  -0.000   0.000  -0.000
   45        0.000   0.000   0.000   0.000
   46       -0.000   0.000   0.000   0.000
   47        0.000   0.000   0.000   0.000
   48        0.000   0.000   0.000   0.000
   49        0.000   0.000   0.000   0.000
   50       -0.000   0.000   0.000   0.000
   51        0.000   0.000   0.000   0.000
   52        0.000   0.000   0.000   0.000
   53       -0.000  -0.000   0.000  -0.000
   54        0.000   0.000   0.000   0.000
   55        0.000   0.000   0.000   0.000
   56        0.000   0.000   0.000   0.000
   57        0.000   0.000   0.000   0.000
   58       -0.000   0.000   0.000   0.000
   59       -0.000   0.000   0.000   0.000
   60        0.000   0.001   0.000   0.001
   61       -0.000   0.000   0.000   0.000
   62       -0.000   0.000   0.000   0.000
   63        0.000   0.001   0.000   0.001
   64        0.000   0.000   0.000   0.000
   65       -0.000   0.000   0.000   0.000
   66        0.000   0.000   0.000   0.000
   67        0.000   0.000   0.000   0.000
   68       -0.000   0.000   0.000   0.000
   69       -0.000   0.000   0.000   0.000
   70       -0.000   0.000   0.000   0.000
   71        0.000   0.001   0.000   0.001
   72       -0.000   0.000   0.000   0.000
   73        0.010   0.680   0.000   0.689
   74        0.010   0.815   0.000   0.825
   75        0.000   0.000   0.000   0.000
   76       -0.000   0.000   0.000  -0.000
   77        0.000   0.000   0.000   0.000
   78       -0.000   0.000   0.000  -0.000
   79       -0.000   0.000   0.000  -0.000
   80       -0.000  -0.000   0.000  -0.000
   81       -0.000   0.000   0.000   0.000
   82       -0.000  -0.000   0.000  -0.000
   83       -0.000  -0.000   0.000  -0.000
   84       -0.000  -0.000   0.000  -0.000
   85        0.000   0.000   0.000   0.000
   86       -0.000  -0.000   0.000  -0.000
   87        0.000  -0.000   0.000  -0.000
   88        0.000   0.000   0.000   0.000
   89       -0.000   0.000   0.000  -0.000
   90       -0.000   0.000   0.000  -0.000
   91       -0.000  -0.000   0.000  -0.000
   92       -0.000  -0.000   0.000  -0.000
   93        0.000   0.000   0.000   0.000
   94       -0.000  -0.000   0.000  -0.000
   95       -0.000   0.000   0.000  -0.000
   96       -0.000  -0.000   0.000  -0.000
   97       -0.000  -0.000   0.000  -0.000
   98       -0.000   0.000   0.000   0.000
   99        0.000  -0.000   0.000   0.000
  100       -0.000   0.000   0.000   0.000
  101        0.000   0.000   0.000   0.000
  102       -0.000  -0.000   0.000  -0.000
  103       -0.000  -0.000   0.000  -0.000
  104       -0.000   0.000   0.000   0.000
  105        0.000   0.000   0.000   0.000
  106        0.000   0.000   0.000   0.000
  107       -0.000  -0.000   0.000  -0.000
  108        0.000  -0.000   0.000   0.000
  109        0.000  -0.000   0.000   0.000
  110        0.000   0.000   0.000   0.000
  111        0.000   0.000  -0.000  -0.000
  112       -0.000  -0.000   0.000   0.000
  113        0.017   0.006   0.097   0.120
--------------------------------------------------
tot          0.038   1.530   0.097   1.665
 

 total amount of memory used by VASP MPI-rank0   207654. kBytes
=======================================================================

   base      :      30000. kBytes
   nonlr-proj:      18644. kBytes
   fftplans  :      63994. kBytes
   grid      :      56122. kBytes
   one-center:        902. kBytes
   wavefun   :      37992. kBytes
 
  
  
 General timing and accounting informations for this job:
 ========================================================
  
                  Total CPU time used (sec):     1719.990
                            User time (sec):     1673.945
                          System time (sec):       46.045
                         Elapsed time (sec):     1726.154
  
                   Maximum memory used (kb):      325984.
                   Average memory used (kb):           0.
  
                          Minor page faults:       770725
                          Major page faults:            0
                 Voluntary context switches:         1414
