 vasp.5.4.4.18Apr17-6-g9f103f2a35 (build Dec 31 2018 11:41:54) complex          
  
 executed on             LinuxIFC date 2022.06.27  13:28:52
 running on   16 total cores
 distrk:  each k-point on   16 cores,    1 groups
 distr:  one band on NCORES_PER_BAND=   4 cores,    4 groups


--------------------------------------------------------------------------------------------------------


 INCAR:
 POTCAR:   PAW_PBE O 08Apr2002                    
 POTCAR:   PAW_PBE Si 05Jan2001                   
 POTCAR:   PAW_PBE Al 04Jan2001                   
 POTCAR:   PAW_PBE Ag 06Sep2000                   
 POTCAR:    PAW_PBE S 17Jan2003                   
 POTCAR:   PAW_PBE O 08Apr2002                    
   VRHFIN =O: s2p4                                                              
   LEXCH  = PE                                                                  
   EATOM  =   432.3788 eV,   31.7789 Ry                                         
                                                                                
   TITEL  = PAW_PBE O 08Apr2002                                                 
   LULTRA =        F    use ultrasoft PP ?                                      
   IUNSCR =        0    unscreen: 0-lin 1-nonlin 2-no                           
   RPACOR =     .000    partial core radius                                     
   POMASS =   16.000; ZVAL   =    6.000    mass and valenz                      
   RCORE  =    1.520    outmost cutoff radius                                   
   RWIGS  =    1.550; RWIGS  =     .820    wigner-seitz radius (au A)           
   ENMAX  =  400.000; ENMIN  =  300.000 eV                                      
   ICORE  =        2    local potential                                         
   LCOR   =        T    correct aug charges                                     
   LPAW   =        T    paw PP                                                  
   EAUG   =  605.392                                                            
   DEXC   =     .000                                                            
   RMAX   =    2.264    core radius for proj-oper                               
   RAUG   =    1.300    factor for augmentation sphere                          
   RDEP   =    1.550    radius for radial grids                                 
   QCUT   =   -5.520; QGAM   =   11.041    optimization parameters              
                                                                                
   Description                                                                  
     l     E      TYP  RCUT    TYP  RCUT                                        
     0   .000     23  1.200                                                     
     0  -.700     23  1.200                                                     
     1   .000     23  1.520                                                     
     1   .600     23  1.520                                                     
     2   .000      7  1.500                                                     
  local pseudopotential read in
  atomic valenz-charges read in
  non local Contribution for L=           0  read in
    real space projection operators read in
  non local Contribution for L=           0  read in
    real space projection operators read in
  non local Contribution for L=           1  read in
    real space projection operators read in
  non local Contribution for L=           1  read in
    real space projection operators read in
    PAW grid and wavefunctions read in
 
   number of l-projection  operators is LMAX  =           4
   number of lm-projection operators is LMMAX =           8
 
 POTCAR:   PAW_PBE Si 05Jan2001                   
   VRHFIN =Si: s2p2                                                             
   LEXCH  = PE                                                                  
   EATOM  =   103.0669 eV,    7.5752 Ry                                         
                                                                                
   TITEL  = PAW_PBE Si 05Jan2001                                                
   LULTRA =        F    use ultrasoft PP ?                                      
   IUNSCR =        1    unscreen: 0-lin 1-nonlin 2-no                           
   RPACOR =    1.500    partial core radius                                     
   POMASS =   28.085; ZVAL   =    4.000    mass and valenz                      
   RCORE  =    1.900    outmost cutoff radius                                   
   RWIGS  =    2.480; RWIGS  =    1.312    wigner-seitz radius (au A)           
   ENMAX  =  245.345; ENMIN  =  184.009 eV                                      
   ICORE  =        2    local potential                                         
   LCOR   =        T    correct aug charges                                     
   LPAW   =        T    paw PP                                                  
   EAUG   =  322.069                                                            
   DEXC   =    -.007                                                            
   RMAX   =    2.944    core radius for proj-oper                               
   RAUG   =    1.300    factor for augmentation sphere                          
   RDEP   =    1.993    radius for radial grids                                 
   QCUT   =   -4.246; QGAM   =    8.493    optimization parameters              
                                                                                
   Description                                                                  
     l     E      TYP  RCUT    TYP  RCUT                                        
     0   .000     23  1.900                                                     
     0   .000     23  1.900                                                     
     1   .000     23  1.900                                                     
     1   .000     23  1.900                                                     
     2   .000      7  1.900                                                     
  local pseudopotential read in
  partial core-charges read in
  atomic valenz-charges read in
  non local Contribution for L=           0  read in
    real space projection operators read in
  non local Contribution for L=           0  read in
    real space projection operators read in
  non local Contribution for L=           1  read in
    real space projection operators read in
  non local Contribution for L=           1  read in
    real space projection operators read in
    PAW grid and wavefunctions read in
 
   number of l-projection  operators is LMAX  =           4
   number of lm-projection operators is LMMAX =           8
 
 POTCAR:   PAW_PBE Al 04Jan2001                   
   VRHFIN =Al: s2p1                                                             
   LEXCH  = PE                                                                  
   EATOM  =    53.5387 eV,    3.9350 Ry                                         
                                                                                
   TITEL  = PAW_PBE Al 04Jan2001                                                
   LULTRA =        F    use ultrasoft PP ?                                      
   IUNSCR =        1    unscreen: 0-lin 1-nonlin 2-no                           
   RPACOR =    1.500    partial core radius                                     
   POMASS =   26.982; ZVAL   =    3.000    mass and valenz                      
   RCORE  =    1.900    outmost cutoff radius                                   
   RWIGS  =    2.650; RWIGS  =    1.402    wigner-seitz radius (au A)           
   ENMAX  =  240.300; ENMIN  =  180.225 eV                                      
   ICORE  =        2    local potential                                         
   LCOR   =        T    correct aug charges                                     
   LPAW   =        T    paw PP                                                  
   EAUG   =  291.052                                                            
   DEXC   =    -.041                                                            
   RMAX   =    2.974    core radius for proj-oper                               
   RAUG   =    1.300    factor for augmentation sphere                          
   RDEP   =    1.966    radius for radial grids                                 
   QCUT   =   -4.203; QGAM   =    8.405    optimization parameters              
                                                                                
   Description                                                                  
     l     E      TYP  RCUT    TYP  RCUT                                        
     0   .000     23  1.900                                                     
     0   .000     23  1.900                                                     
     1   .000     23  1.900                                                     
     1  1.000     23  1.900                                                     
     2   .000      7  1.900                                                     
  local pseudopotential read in
  partial core-charges read in
  atomic valenz-charges read in
  non local Contribution for L=           0  read in
    real space projection operators read in
  non local Contribution for L=           0  read in
    real space projection operators read in
  non local Contribution for L=           1  read in
    real space projection operators read in
  non local Contribution for L=           1  read in
    real space projection operators read in
    PAW grid and wavefunctions read in
 
   number of l-projection  operators is LMAX  =           4
   number of lm-projection operators is LMMAX =           8
 
 POTCAR:   PAW_PBE Ag 06Sep2000                   
   VRHFIN =Ag : s1 d10                                                          
   LEXCH  = PE                                                                  
   EATOM  =  1037.4134 eV,   76.2477 Ry                                         
                                                                                
   TITEL  = PAW_PBE Ag 06Sep2000                                                
   LULTRA =        F    use ultrasoft PP ?                                      
   IUNSCR =        1    unscreen: 0-lin 1-nonlin 2-no                           
   RPACOR =    2.000    partial core radius                                     
   POMASS =  107.868; ZVAL   =   11.000    mass and valenz                      
   RCORE  =    2.400    outmost cutoff radius                                   
   RWIGS  =    2.840; RWIGS  =    1.503    wigner-seitz radius (au A)           
   ENMAX  =  249.846; ENMIN  =  187.385 eV                                      
   RCLOC  =    1.962    cutoff for local pot                                    
   LCOR   =        T    correct aug charges                                     
   LPAW   =        T    paw PP                                                  
   EAUG   =  412.496                                                            
   DEXC   =    -.047                                                            
   RMAX   =    2.917    core radius for proj-oper                               
   RAUG   =    1.300    factor for augmentation sphere                          
   RDEP   =    2.416    radius for radial grids                                 
   QCUT   =   -4.285; QGAM   =    8.570    optimization parameters              
                                                                                
   Description                                                                  
     l     E      TYP  RCUT    TYP  RCUT                                        
     2   .000     23  2.400                                                     
     2   .000     23  2.400                                                     
     0   .000     23  2.400                                                     
     0   .000     23  2.400                                                     
     1  -.200     23  2.400                                                     
     1  1.500     23  2.400                                                     
     3   .000      7   .000                                                     
  local pseudopotential read in
  partial core-charges read in
  atomic valenz-charges read in
  non local Contribution for L=           2  read in
    real space projection operators read in
  non local Contribution for L=           2  read in
    real space projection operators read in
  non local Contribution for L=           0  read in
    real space projection operators read in
  non local Contribution for L=           0  read in
    real space projection operators read in
  non local Contribution for L=           1  read in
    real space projection operators read in
  non local Contribution for L=           1  read in
    real space projection operators read in
    PAW grid and wavefunctions read in
 
   number of l-projection  operators is LMAX  =           6
   number of lm-projection operators is LMMAX =          18
 
 POTCAR:    PAW_PBE S 17Jan2003                   
   VRHFIN =S : s2p4                                                             
   LEXCH  = PE                                                                  
   EATOM  =   276.8230 eV,   20.3459 Ry                                         
                                                                                
   TITEL  = PAW_PBE S 17Jan2003                                                 
   LULTRA =        F    use ultrasoft PP ?                                      
   IUNSCR =        1    unscreen: 0-lin 1-nonlin 2-no                           
   RPACOR =    1.500    partial core radius                                     
   POMASS =   32.066; ZVAL   =    6.000    mass and valenz                      
   RCORE  =    1.900    outmost cutoff radius                                   
   RWIGS  =    2.200; RWIGS  =    1.164    wigner-seitz radius (au A)           
   ENMAX  =  280.000; ENMIN  =  194.016 eV                                      
   ICORE  =        2    local potential                                         
   LCOR   =        T    correct aug charges                                     
   LPAW   =        T    paw PP                                                  
   EAUG   =  335.092                                                            
   DEXC   =     .000                                                            
   RMAX   =    2.867    core radius for proj-oper                               
   RAUG   =    1.300    factor for augmentation sphere                          
   RDEP   =    1.954    radius for radial grids                                 
   QCUT   =   -4.360; QGAM   =    8.721    optimization parameters              
                                                                                
   Description                                                                  
     l     E      TYP  RCUT    TYP  RCUT                                        
     0   .000     23  1.900                                                     
     0   .000     23  1.900                                                     
     1   .000     23  1.900                                                     
     1   .000     23  1.900                                                     
     2   .000     23  1.900                                                     
  local pseudopotential read in
  partial core-charges read in
  atomic valenz-charges read in
  non local Contribution for L=           0  read in
    real space projection operators read in
  non local Contribution for L=           0  read in
    real space projection operators read in
  non local Contribution for L=           1  read in
    real space projection operators read in
  non local Contribution for L=           1  read in
    real space projection operators read in
    PAW grid and wavefunctions read in
 
   number of l-projection  operators is LMAX  =           4
   number of lm-projection operators is LMMAX =           8
 
 Optimization of the real space projectors (new method)

 maximal supplied QI-value         = 24.76
 optimisation between [QCUT,QGAM] = [ 10.15, 20.30] = [ 28.85,115.39] Ry 
 Optimized for a Real-space Cutoff    1.51 Angstroem

   l    n(q)    QCUT    max X(q) W(low)/X(q) W(high)/X(q)  e(spline) 
   0      9    10.150     4.192    0.32E-04    0.13E-04    0.13E-06
   0      9    10.150     8.473    0.18E-03    0.20E-03    0.43E-06
   1      9    10.150     2.474    0.32E-04    0.33E-04    0.64E-07
   1      9    10.150     3.912    0.13E-03    0.16E-03    0.33E-06
 Optimization of the real space projectors (new method)

 maximal supplied QI-value         = 19.84
 optimisation between [QCUT,QGAM] = [ 10.12, 20.44] = [ 28.68,116.96] Ry 
 Optimized for a Real-space Cutoff    1.38 Angstroem

   l    n(q)    QCUT    max X(q) W(low)/X(q) W(high)/X(q)  e(spline) 
   0      8    10.119     8.708    0.16E-04    0.67E-05    0.60E-08
   0      8    10.119   106.241    0.56E-04    0.11E-03    0.54E-07
   1      8    10.119     5.901    0.16E-04    0.16E-05    0.22E-07
   1      8    10.119    73.241    0.22E-03    0.17E-03    0.18E-06
 Optimization of the real space projectors (new method)

 maximal supplied QI-value         = 19.84
 optimisation between [QCUT,QGAM] = [ 10.12, 20.44] = [ 28.68,116.96] Ry 
 Optimized for a Real-space Cutoff    1.26 Angstroem

   l    n(q)    QCUT    max X(q) W(low)/X(q) W(high)/X(q)  e(spline) 
   0      8    10.119    13.410    0.28E-04    0.17E-04    0.51E-08
   0      8    10.119   140.052    0.10E-03    0.16E-03    0.42E-07
   1      7    10.119     9.624    0.38E-04    0.42E-05    0.15E-07
   1      7    10.119    53.353    0.23E-03    0.17E-03    0.13E-06
 Optimization of the real space projectors (new method)

 maximal supplied QI-value         = 15.68
 optimisation between [QCUT,QGAM] = [ 10.20, 20.39] = [ 29.11,116.42] Ry 
 Optimized for a Real-space Cutoff    1.51 Angstroem

   l    n(q)    QCUT    max X(q) W(low)/X(q) W(high)/X(q)  e(spline) 
   2      8    10.195     3.831    0.11E-04    0.20E-04    0.48E-07
   2      8    10.195    20.184    0.23E-03    0.42E-03    0.20E-06
   0      9    10.195    16.770    0.13E-04    0.90E-05    0.63E-08
   0      9    10.195    80.708    0.19E-03    0.15E-03    0.44E-07
   1      9    10.195     6.696    0.12E-04    0.45E-04    0.30E-07
   1      9    10.195     8.973    0.12E-03    0.15E-03    0.13E-06
 Optimization of the real space projectors (new method)

 maximal supplied QI-value         = 19.84
 optimisation between [QCUT,QGAM] = [ 10.12, 20.44] = [ 28.68,116.96] Ry 
 Optimized for a Real-space Cutoff    1.42 Angstroem

   l    n(q)    QCUT    max X(q) W(low)/X(q) W(high)/X(q)  e(spline) 
   0      9    10.119     5.487    0.15E-04    0.47E-05    0.66E-08
   0      9    10.119    85.627    0.51E-04    0.92E-04    0.63E-07
   1      8    10.119     3.530    0.37E-05    0.76E-05    0.28E-07
   1      8    10.119    42.714    0.16E-03    0.16E-03    0.23E-06
 PAW_PBE O 08Apr2002                    :
 energy of atom  1       EATOM= -432.3788
 kinetic energy error for atom=    0.1156 (will be added to EATOM!!)
 PAW_PBE Si 05Jan2001                   :
 energy of atom  2       EATOM= -103.0669
 kinetic energy error for atom=    0.0012 (will be added to EATOM!!)
 PAW_PBE Al 04Jan2001                   :
 energy of atom  3       EATOM=  -53.5387
 kinetic energy error for atom=    0.0005 (will be added to EATOM!!)
 PAW_PBE Ag 06Sep2000                   :
 energy of atom  4       EATOM=-1037.4134
 kinetic energy error for atom=    0.0091 (will be added to EATOM!!)
  PAW_PBE S 17Jan2003                   :
 energy of atom  5       EATOM= -276.8230
 kinetic energy error for atom=    0.0046 (will be added to EATOM!!)
 
 
 POSCAR: O  C                                    
  positions in direct lattice
  velocities in cartesian coordinates
 exchange correlation table for  LEXCH =        8
   RHO(1)=    0.500       N(1)  =     2000
   RHO(2)=  100.500       N(2)  =     4000

 VTST: version 3.2, (02/03/18)

 CHAIN: initializing optimizer
 
 OPT: Using VASP Dynamics algorithm
 CHAIN: Read ICHAIN            0
 
 POSCAR: O  C                                    
  positions in direct lattice
  velocities in cartesian coordinates
 


--------------------------------------------------------------------------------------------------------


 ion  position               nearest neighbor table
   1  0.899  0.099  0.118-  75 1.63  82 1.63
   2  0.107  0.888  0.882-  81 1.62  76 1.62
   3  0.894  0.795  0.128-  85 1.62  77 1.64
   4  0.096  0.198  0.866-  78 1.63  84 1.63
   5  0.196  0.104  0.116-  79 1.63  83 1.63
   6  0.802  0.905  0.881-  80 1.59 108 1.73
   7  0.555  0.427  0.456-  86 1.62  92 1.63
   8  0.764  0.234  0.220-  91 1.59 109 1.73
   9  0.567  0.142  0.471-  96 1.64  87 1.64
  10  0.767  0.540  0.207-  95 1.63  88 1.63
  11  0.864  0.426  0.464-  94 1.63  89 1.64
  12  0.465  0.237  0.183-  90 1.63  93 1.64
  13  0.232  0.777  0.776- 104 1.61  97 1.64
  14  0.424  0.570  0.525-  98 1.66 103 1.67 112 2.54
  15  0.231  0.449  0.772-  99 1.61 107 1.62
  16  0.429  0.852  0.531- 100 1.63 110 1.79 112 2.27
  17  0.531  0.758  0.806- 101 1.63 106 1.64
  18  0.125  0.561  0.533- 105 1.65 102 1.68 112 2.45
  19  0.978  0.317  0.162-  75 1.61  91 1.63
  20  0.022  0.670  0.841- 104 1.62  76 1.63
  21  0.679  0.674  0.174-  95 1.61  77 1.63
  22  0.314  0.317  0.819- 107 1.62  78 1.63
  23  0.319  0.016  0.178-  79 1.61  93 1.63
  24  0.664  0.981  0.827- 106 1.62  80 1.63
  25  0.326  0.988  0.838-  81 1.61  97 1.63
  26  0.678  0.005  0.163-  82 1.60 109 1.74 111 2.54
  27  0.671  0.674  0.813- 101 1.61 108 1.77 113 2.36
  28  0.333  0.324  0.158-  83 1.62  90 1.62
  29  0.017  0.338  0.832-  99 1.61  84 1.63
  30  0.988  0.671  0.174-  88 1.62  85 1.62
  31  0.647  0.641  0.505- 103 1.61  86 1.62
  32  0.343  0.994  0.475-  87 1.59 110 1.71
  33  0.995  0.338  0.499- 105 1.61  89 1.64
  34  0.337  0.351  0.482-  98 1.61  92 1.63
  35  0.987  0.643  0.505- 102 1.62  94 1.62
  36  0.650  0.008  0.515- 100 1.61  96 1.64
  37  0.118  0.244  0.130-  83 1.61  75 1.62
  38  0.888  0.752  0.855-  76 1.62 108 1.77 113 2.35
  39  0.762  0.879  0.112-  82 1.60  77 1.61
  40  0.227  0.108  0.870-  78 1.61  81 1.62
  41  0.113  0.883  0.127-  79 1.61  85 1.61
  42  0.876  0.124  0.861-  84 1.61  80 1.63
  43  0.775  0.557  0.468-  86 1.61  94 1.61
  44  0.536  0.088  0.175-  93 1.62 109 1.79 111 2.31
  45  0.415  0.210  0.468-  92 1.60  87 1.64
  46  0.902  0.454  0.195-  88 1.61  91 1.63
  47  0.785  0.207  0.452-  89 1.60  96 1.63
  48  0.547  0.457  0.196-  90 1.61  95 1.62
  49  0.449  0.896  0.807- 106 1.62  97 1.64
  50  0.209  0.427  0.543- 105 1.62  98 1.62
  51  0.123  0.557  0.802-  99 1.61 104 1.62
  52  0.579  0.788  0.520- 103 1.61 100 1.64
  53  0.450  0.536  0.801- 107 1.62 101 1.63
  54  0.203  0.777  0.545- 102 1.58 110 1.74
  55  1.000  0.261  0.995-  84 1.62  75 1.63
  56  0.990  0.728  0.003-  76 1.62  85 1.63
  57  0.734  0.714  1.000-  77 1.60 108 1.72
  58  0.256  0.266  0.992-  78 1.63  83 1.63
  59  0.271  0.004  0.004-  81 1.63  79 1.64
  60  0.662  0.591  0.335-  86 1.62  95 1.63
  61  0.631  0.049  0.342-  96 1.60 109 1.72
  62  0.442  0.110  0.325-  93 1.61  87 1.63
  63  0.920  0.584  0.336-  94 1.62  88 1.63
  64  0.940  0.348  0.331-  89 1.62  91 1.64
  65  0.405  0.323  0.323-  92 1.62  90 1.63
  66  0.359  0.951  0.667-  97 1.59 110 1.74
  67  0.355  0.410  0.655-  98 1.62 107 1.64
  68  0.057  0.409  0.666- 105 1.62  99 1.63
  69  0.576  0.897  0.667- 106 1.61 100 1.62
  70  0.567  0.660  0.662- 103 1.61 101 1.63
  71  0.055  0.639  0.671- 102 1.64 104 1.64
  72  0.731  0.012  0.994-  80 1.66  82 1.67 111 2.49
  73  0.755  0.442  0.688- 114 1.47 113 2.24
  74  0.740  0.255  0.669- 114 1.44
  75  0.997  0.229  0.102-  19 1.61  37 1.62   1 1.63  55 1.63  91 3.10  83 3.10  84 3.13  82 3.13

  76  0.002  0.761  0.897-  38 1.62  56 1.62   2 1.62  20 1.63 104 3.06  85 3.12 108 3.17
  77  0.766  0.764  0.100-  57 1.60  39 1.61  21 1.63   3 1.64  95 3.01 108 3.08  85 3.10
  78  0.222  0.222  0.888-  40 1.61  58 1.63  22 1.63   4 1.63 107 3.07  83 3.11  84 3.13
  79  0.224  0.002  0.106-  41 1.61  23 1.61   5 1.63  59 1.64  93 3.04  81 3.07
  80  0.771  0.002  0.890-   6 1.59  24 1.63  42 1.63  72 1.66 106 3.07  82 3.09  84 3.10 108 3.23

  81  0.232  0.996  0.899-  25 1.61  40 1.62   2 1.62  59 1.63  97 3.07  79 3.07
  82  0.769  0.999  0.099-  26 1.60  39 1.60   1 1.63  72 1.67  80 3.09  75 3.13 109 3.16 111 3.16

  83  0.226  0.234  0.099-  37 1.61  28 1.62   5 1.63  58 1.63  90 3.06  75 3.10  78 3.11
  84  0.997  0.228  0.890-  42 1.61  55 1.62  29 1.63   4 1.63  99 3.06  80 3.10  78 3.13  75 3.13

  85  0.995  0.769  0.107-  41 1.61   3 1.62  30 1.62  56 1.63  88 3.04  77 3.10  76 3.12
  86  0.659  0.553  0.439-  43 1.61  60 1.62   7 1.62  31 1.62 103 3.07  94 3.12  95 3.13  92 3.13

  87  0.441  0.110  0.435-  32 1.59  62 1.63  45 1.64   9 1.64  96 3.02  92 3.04 110 3.07
  88  0.893  0.561  0.228-  46 1.61  30 1.62  63 1.63  10 1.63  85 3.04  91 3.09
  89  0.893  0.328  0.434-  47 1.60  64 1.62  33 1.64  11 1.64 105 3.03  91 3.06  94 3.11
  90  0.438  0.335  0.216-  48 1.61  28 1.62  65 1.63  12 1.63  83 3.06  93 3.06  95 3.13
  91  0.891  0.335  0.227-   8 1.59  19 1.63  46 1.63  64 1.64  89 3.06  88 3.09  75 3.10 109 3.24

  92  0.429  0.326  0.430-  45 1.60  65 1.62   7 1.63  34 1.63  87 3.04  98 3.05  86 3.13
  93  0.441  0.113  0.216-  62 1.61  44 1.62  23 1.63  12 1.64  79 3.04  90 3.06 109 3.07
  94  0.886  0.552  0.441-  43 1.61  63 1.62  35 1.62  11 1.63 102 3.05  89 3.11  86 3.12
  95  0.665  0.565  0.228-  21 1.61  48 1.62  60 1.63  10 1.63  77 3.01  86 3.13  90 3.13
  96  0.656  0.101  0.442-  61 1.60  47 1.63  36 1.64   9 1.64  87 3.02 100 3.04 109 3.11
  97  0.341  0.904  0.768-  66 1.59  25 1.63  49 1.64  13 1.64  81 3.07 106 3.08 110 3.12
  98  0.332  0.437  0.552-  34 1.61  50 1.62  67 1.62  14 1.66  92 3.05 103 3.10 107 3.10
  99  0.108  0.438  0.768-  29 1.61  15 1.61  51 1.61  68 1.63  84 3.06 104 3.07 105 3.08
 100  0.558  0.889  0.558-  36 1.61  69 1.62  16 1.63  52 1.64 103 3.04  96 3.04 110 3.17 112 3.33

 101  0.555  0.658  0.771-  27 1.61  70 1.63  53 1.63  17 1.63 107 3.07 106 3.08 108 3.13
 102  0.094  0.660  0.564-  54 1.58  35 1.62  71 1.64  18 1.68  94 3.05 104 3.08 105 3.13 112 3.27

 103  0.556  0.666  0.554-  70 1.61  31 1.61  52 1.61  14 1.67 100 3.04  86 3.07  98 3.10
 104  0.111  0.664  0.772-  13 1.61  20 1.62  51 1.62  71 1.64  76 3.06  99 3.07 102 3.08
 105  0.095  0.431  0.560-  33 1.61  50 1.62  68 1.62  18 1.65  89 3.03  99 3.08 102 3.13
 106  0.555  0.883  0.775-  69 1.61  49 1.62  24 1.62  17 1.64  80 3.07 101 3.08  97 3.08
 107  0.337  0.428  0.762-  22 1.62  53 1.62  15 1.62  67 1.64  78 3.07 101 3.07  98 3.10
 108  0.773  0.767  0.892-  57 1.72   6 1.73  27 1.77  38 1.77  77 3.08 113 3.09 101 3.13  76 3.17
                            80 3.23
 109  0.656  0.096  0.231-  61 1.72   8 1.73  26 1.74  44 1.79  93 3.07 111 3.10  96 3.11  82 3.16
                            91 3.24
 110  0.332  0.900  0.556-  32 1.71  54 1.74  66 1.74  16 1.79  87 3.07  97 3.12 100 3.17 112 3.24

 111  0.560  0.022  0.037-  44 2.31  72 2.49  26 2.54 109 3.10  82 3.16
 112  0.320  0.673  0.479-  16 2.27  18 2.45  14 2.54 110 3.24 102 3.27 100 3.33
 113  0.783  0.602  0.755-  73 2.24  38 2.35  27 2.36 108 3.09
 114  0.797  0.365  0.710-  74 1.44  73 1.47
 
  LATTYP: Found a hexagonal cell.
 ALAT       =    13.6750001907
 C/A-ratio  =     1.0798537472
  
  Lattice vectors:
  
 A1 = (  13.6750001907,   0.0000000000,   0.0000000000)
 A2 = (  -6.8375000954,  11.8428975619,   0.0000000000)
 A3 = (   0.0000000000,   0.0000000000,  14.7670001984)


Analysis of symmetry for initial positions (statically):
=====================================================================
 Subroutine PRICEL returns:
 Original cell was already a primitive cell.
 

 Routine SETGRP: Setting up the symmetry group for a 
 hexagonal supercell.


 Subroutine GETGRP returns: Found  1 space group operations
 (whereof  1 operations were pure point group operations)
 out of a pool of 24 trial point group operations.


The static configuration has the point symmetry C_1 .


Analysis of symmetry for dynamics (positions and initial velocities):
=====================================================================
 Subroutine PRICEL returns:
 Original cell was already a primitive cell.
 

 Routine SETGRP: Setting up the symmetry group for a 
 hexagonal supercell.


 Subroutine GETGRP returns: Found  1 space group operations
 (whereof  1 operations were pure point group operations)
 out of a pool of 24 trial point group operations.


The dynamic configuration has the point symmetry C_1 .


Analysis of structural, dynamic, and magnetic symmetry:
=====================================================================
 Subroutine PRICEL returns:
 Original cell was already a primitive cell.
 

 Routine SETGRP: Setting up the symmetry group for a 
 hexagonal supercell.


 Subroutine GETGRP returns: Found  1 space group operations
 (whereof  1 operations were pure point group operations)
 out of a pool of 24 trial point group operations.


The magnetic configuration has the point symmetry C_1 .


 Subroutine INISYM returns: Found  1 space group operations
 (whereof  1 operations are pure point group operations),
 and found     1 'primitive' translations

 
 
 KPOINTS: Gamma points only                       
  k-points in reciprocal lattice
Space group operators:
 irot       det(A)        alpha          n_x          n_y          n_z        tau_x        tau_y        tau_z
    1     1.000000     0.000000     1.000000     0.000000     0.000000     0.000000     0.000000     0.000000

 ----------------------------------------------------------------------------- 
|                                                                             |
|           W    W    AA    RRRRR   N    N  II  N    N   GGGG   !!!           |
|           W    W   A  A   R    R  NN   N  II  NN   N  G    G  !!!           |
|           W    W  A    A  R    R  N N  N  II  N N  N  G       !!!           |
|           W WW W  AAAAAA  RRRRR   N  N N  II  N  N N  G  GGG   !            |
|           WW  WW  A    A  R   R   N   NN  II  N   NN  G    G                |
|           W    W  A    A  R    R  N    N  II  N    N   GGGG   !!!           |
|                                                                             |
|      Your generating k-point grid is not commensurate to the symmetry       |
|      of the lattice.  This can cause   slow convergence with respect        |
|      to k-points for HF type calculations                                   |
|      suggested SOLUTIONS:                                                   |
|       ) if not already the case, use automatic k-point generation           |
|       ) shift your grid to Gamma (G) (e.g. required for hex or fcc lattice) |
|                                                                             |
 ----------------------------------------------------------------------------- 

 
 Subroutine IBZKPT_HF returns following result:
 ==============================================
 
 Found      1 k-points in 1st BZ
 the following      1 k-points will be used (e.g. in the exchange kernel)
 Following reciprocal coordinates:   # in IRBZ
  0.000000  0.000000  0.000000    1.00000000   1 t-inv F


--------------------------------------------------------------------------------------------------------




 Dimension of arrays:
   k-points           NKPTS =      1   k-points in BZ     NKDIM =      1   number of bands    NBANDS=    432
   number of dos      NEDOS =    301   number of ions     NIONS =    114
   non local maximal  LDIM  =      6   non local SUM 2l+1 LMDIM =     18
   total plane-waves  NPLWV = 777600
   max r-space proj   IRMAX =   4725   max aug-charges    IRDMAX= 128081
   dimension x,y,z NGX =    90 NGY =   90 NGZ =   96
   dimension x,y,z NGXF=   180 NGYF=  180 NGZF=  192
   support grid    NGXF=   360 NGYF=  360 NGZF=  384
   ions per type =              74  33   3   3   1
   NGX,Y,Z   is equivalent  to a cutoff of  10.94, 10.94, 10.81 a.u.
   NGXF,Y,Z  is equivalent  to a cutoff of  21.88, 21.88, 21.62 a.u.

 SYSTEM =  SiO2                                    
 POSCAR =  O  C                                    

 Startparameter for this run:
   NWRITE =      2    write-flag & timer
   PREC   = acc       normal or accurate (medium, high low for compatibility)
   ISTART =      0    job   : 0-new  1-cont  2-samecut
   ICHARG =      2    charge: 1-file 2-atom 10-const
   ISPIN  =      2    spin polarized calculation?
   LNONCOLLINEAR =      F non collinear calculations
   LSORBIT =      F    spin-orbit coupling
   INIWAV =      1    electr: 0-lowe 1-rand  2-diag
   LASPH  =      F    aspherical Exc in radial PAW
   METAGGA=      F    non-selfconsistent MetaGGA calc.

 Electronic Relaxation 1
   ENCUT  =  400.0 eV  29.40 Ry    5.42 a.u.  22.30 22.30 24.08*2*pi/ulx,y,z
   ENINI  =  400.0     initial cutoff
   ENAUG  =  605.4 eV  augmentation charge cutoff
   NELM   =    100;   NELMIN=  2; NELMDL= -5     # of ELM steps 
   EDIFF  = 0.1E-04   stopping-criterion for ELM
   LREAL  =      T    real-space projection
   NLSPLINE    = F    spline interpolate recip. space projectors
   LCOMPAT=      F    compatible to vasp.4.4
   GGA_COMPAT  = T    GGA compatible to vasp.4.4-vasp.4.6
   LMAXPAW     = -100 max onsite density
   LMAXMIX     =    2 max onsite mixed and CHGCAR
   VOSKOWN=      0    Vosko Wilk Nusair interpolation
   ROPT   =   -0.00025  -0.00025  -0.00025  -0.00025
   ROPT   =   -0.00025
 Ionic relaxation
   EDIFFG = 0.1E-03   stopping-criterion for IOM
   NSW    =      0    number of steps for IOM
   NBLOCK =      1;   KBLOCK =      1    inner block; outer block 
   IBRION =     -1    ionic relax: 0-MD 1-quasi-New 2-CG
   NFREE  =      0    steps in history (QN), initial steepest desc. (CG)
   ISIF   =      0    stress and relaxation
   IWAVPR =     10    prediction:  0-non 1-charg 2-wave 3-comb
   ISYM   =      3    0-nonsym 1-usesym 2-fastsym
   LCORR  =      T    Harris-Foulkes like correction to forces

   POTIM  = 0.5000    time-step for ionic-motion
   TEIN   =    0.0    initial temperature
   TEBEG  =    0.0;   TEEND  =   0.0 temperature during run
   SMASS  =  -3.00    Nose mass-parameter (am)
   estimated Nose-frequenzy (Omega)   =  0.10E-29 period in steps =****** mass=  -0.427E-26a.u.
   SCALEE = 1.0000    scale energy and forces
   NPACO  =    256;   APACO  = 16.0  distance and # of slots for P.C.
   PSTRESS=    0.0 pullay stress

  Mass of Ions in am
   POMASS =  16.00 28.09 26.98107.87 32.07
  Ionic Valenz
   ZVAL   =   6.00  4.00  3.00 11.00  6.00
  Atomic Wigner-Seitz radii
   RWIGS  =  -1.00 -1.00 -1.00 -1.00 -1.00
  virtual crystal weights 
   VCA    =   1.00  1.00  1.00  1.00  1.00
   NELECT =     624.0000    total number of electrons
   NUPDOWN=      -1.0000    fix difference up-down

 DOS related values:
   EMIN   =  10.00;   EMAX   =-10.00  energy-range for DOS
   EFERMI =   0.00
   ISMEAR =     0;   SIGMA  =   0.05  broadening in eV -4-tet -1-fermi 0-gaus

 Electronic relaxation 2 (details)
   IALGO  =     38    algorithm
   LDIAG  =      T    sub-space diagonalisation (order eigenvalues)
   LSUBROT=      F    optimize rotation matrix (better conditioning)
   TURBO    =      0    0=normal 1=particle mesh
   IRESTART =      0    0=no restart 2=restart with 2 vectors
   NREBOOT  =      0    no. of reboots
   NMIN     =      0    reboot dimension
   EREF     =   0.00    reference energy to select bands
   IMIX   =      1    mixing-type and parameters
     AMIX     =   0.40;   BMIX     =  1.00
     AMIX_MAG =   1.60;   BMIX_MAG =  1.00
     AMIN     =   0.10
     WC   =   100.;   INIMIX=   1;  MIXPRE=   1;  MAXMIX= -45

 Intra band minimization:
   WEIMIN = 0.0000     energy-eigenvalue tresh-hold
   EBREAK =  0.58E-08  absolut break condition
   DEPER  =   0.30     relativ break condition  

   TIME   =   0.40     timestep for ELM

  volume/ion in A,a.u.               =      20.98       141.57
  Fermi-wavevector in a.u.,A,eV,Ry     =   1.046110  1.976860 14.889470  1.094345
  Thomas-Fermi vector in A             =   2.180934
 
 Write flags
   LWAVE        =      F    write WAVECAR
   LDOWNSAMPLE  =      F    k-point downsampling of WAVECAR
   LCHARG       =      F    write CHGCAR
   LVTOT        =      F    write LOCPOT, total local potential
   LVHAR        =      F    write LOCPOT, Hartree potential only
   LELF         =      F    write electronic localiz. function (ELF)
   LORBIT       =     11    0 simple, 1 ext, 2 COOP (PROOUT), +10 PAW based schemes


 Dipole corrections
   LMONO  =      F    monopole corrections only (constant potential shift)
   LDIPOL =      F    correct potential (dipole corrections)
   IDIPOL =      0    1-x, 2-y, 3-z, 4-all directions 
   EPSILON=  1.0000000 bulk dielectric constant

 Exchange correlation treatment:
   GGA     =    PE    GGA type
   LEXCH   =     8    internal setting for exchange type
   VOSKOWN=      0    Vosko Wilk Nusair interpolation
   EXXOEP  =     0    0=HF, 1=EXX-LHF (local Hartree Fock) 2=EXX OEP
   LHFCALC =     T    Hartree Fock is set to
   LSYMGRAD=     F    symmetrize gradient (conserves proper symmetry)
   PRECFOCK=normal    Normal, Fast or Accurate (Low or Medium for compatibility)
   LRHFCALC=     F    long range Hartree Fock
   LRSCOR  =     F    long range correlation only (use DFT for short range part)
   LTHOMAS =     F    Thomas Fermi screening in HF
   LMODELHF=     F    short range full HF, long range fraction AEXX
   ENCUT4O =  -1.0   cutoff for four orbital integrals eV
   LMAXFOCK=     4    L truncation for augmentation on plane wave grid
   LMAXFOCKAE=  -1    L truncation for all-electron charge restoration on plane wave grid
   NMAXFOCKAE=   1    number of basis functions for all-electron charge restoration
   LFOCKAEDFT=     F  apply the AE augmentation even for DFT
   NKREDX  =     1    reduce k-point grid by
   NKREDY  =     1    reduce k-point grid by
   NKREDZ  =     1    reduce k-point grid by
   SHIFTRED=     F    shift reduced grid of Gamma
   HFKIDENT=     F    idential grid for each k-point
   ODDONLY =     F    use only odd q-grid points
   EVENONLY=     F    use only even q-grid points
   HFALPHA =   -1.0000 decay constant for conv. correction
   MCALPHA =    0.0000 extent of test-charge in conv. correction in multipole expansion
   AEXX    =    0.2500 exact exchange contribution
   HFSCREEN=    0.2000 screening length (either q_TF or 0.3 A-1)
   HFSCREENC=   0.2000 screening length for correlation (either q_TF or 0.3 A-1)
   HFRCUT  =    0.0000 spherical cutoff for potential kernel
   ALDAX   =    0.7500 LDA exchange part
   AGGAX   =    0.7500 GGA exchange part
   ALDAC   =    1.0000 LDA correlation
   AGGAC   =    1.0000 GGA correlation
   ENCUTFOCK=  -1.0 apply spherical cutoff to Coloumb kernel
   NBANDSGWLOW=     1    first orbital included in HF term
   NBLOCK_FOCK=    64    blocking factor in FOCK_ACC
 Linear response parameters
   LEPSILON=     F    determine dielectric tensor
   LRPA    =     F    only Hartree local field effects (RPA)
   LNABLA  =     F    use nabla operator in PAW spheres
   LVEL    =     F    velocity operator in full k-point grid
   LINTERFAST=   F  fast interpolation
   KINTER  =     0    interpolate to denser k-point grid
   CSHIFT  =0.1000    complex shift for real part using Kramers Kronig
   OMEGAMAX=  -1.0    maximum frequency
   DEG_THRESHOLD= 0.2000000E-02 threshold for treating states as degnerate
   RTIME   =   -0.100 relaxation time in fs
  (WPLASMAI=    0.000 imaginary part of plasma frequency in eV, 0.658/RTIME)
   DFIELD  = 0.0000000 0.0000000 0.0000000 field for delta impulse in time
 
 Orbital magnetization related:
   ORBITALMAG=     F  switch on orbital magnetization
   LCHIMAG   =     F  perturbation theory with respect to B field
   DQ        =  0.001000  dq finite difference perturbation B field
   LLRAUG    =     F  two centre corrections for induced B field



--------------------------------------------------------------------------------------------------------


 Static calculation
 charge density and potential will be updated during run
 spin polarized calculation
 Variant of blocked Davidson
 Davidson routine will perform the subspace rotation
 perform sub-space diagonalisation
    after iterative eigenvector-optimisation
 Kerker-like  mixing scheme
 using additional bands          120
 real space projection scheme for non local part
 use partial core corrections
 calculate Harris-corrections to forces 
   (improved forces if not selfconsistent)
 use gradient corrections 
 use of overlap-Matrix (Vanderbilt PP)
 Gauss-broadening in eV      SIGMA  =   0.05


--------------------------------------------------------------------------------------------------------


  energy-cutoff  :      400.00
  volume of cell :     2391.54
      direct lattice vectors                 reciprocal lattice vectors
    13.675000191  0.000000000  0.000000000     0.073126142  0.042219398  0.000000000
    -6.837500095 11.842897562  0.000000000     0.000000000  0.084438795  0.000000000
     0.000000000  0.000000000 14.767000198     0.000000000  0.000000000  0.067718561

  length of vectors
    13.675000191 13.675000191 14.767000198     0.084438795  0.084438795  0.067718561


 
 k-points in units of 2pi/SCALE and weight: Gamma points only                       
   0.00000000  0.00000000  0.00000000       1.000
 
 k-points in reciprocal lattice and weights: Gamma points only                       
   0.00000000  0.00000000  0.00000000       1.000
 
 position of ions in fractional coordinates (direct lattice) 
   0.89865615  0.09888784  0.11751506
   0.10718881  0.88837988  0.88206797
   0.89448426  0.79503518  0.12844003
   0.09558199  0.19825519  0.86603262
   0.19568153  0.10409634  0.11647444
   0.80246055  0.90482471  0.88123445
   0.55485181  0.42682929  0.45591480
   0.76420792  0.23421598  0.21967508
   0.56691412  0.14215253  0.47094141
   0.76671232  0.53987119  0.20689953
   0.86427187  0.42570954  0.46431046
   0.46544489  0.23720280  0.18317799
   0.23187445  0.77665760  0.77581860
   0.42436489  0.56985187  0.52470536
   0.23138758  0.44869878  0.77155414
   0.42934420  0.85203360  0.53062095
   0.53137351  0.75752186  0.80550534
   0.12523519  0.56060568  0.53262085
   0.97772204  0.31685804  0.16166888
   0.02177986  0.66950766  0.84120838
   0.67888291  0.67433031  0.17385575
   0.31359976  0.31692448  0.81915613
   0.31872480  0.01606708  0.17848079
   0.66438311  0.98137632  0.82662332
   0.32556866  0.98767238  0.83797528
   0.67768320  0.00478010  0.16251982
   0.67128452  0.67378427  0.81320806
   0.33250668  0.32400961  0.15769380
   0.01679762  0.33770764  0.83159716
   0.98775701  0.67137899  0.17414405
   0.64656120  0.64066372  0.50532113
   0.34296684  0.99390942  0.47458069
   0.99502534  0.33817767  0.49854566
   0.33704696  0.35061579  0.48154457
   0.98650051  0.64305331  0.50547021
   0.65043566  0.00802289  0.51495319
   0.11779003  0.24375834  0.12961608
   0.88803527  0.75179088  0.85489898
   0.76237014  0.87946815  0.11167841
   0.22721337  0.10808403  0.87033342
   0.11331525  0.88296621  0.12684459
   0.87572473  0.12426126  0.86089074
   0.77453387  0.55658918  0.46834973
   0.53623552  0.08755353  0.17487232
   0.41543998  0.21014622  0.46771899
   0.90203117  0.45384479  0.19542311
   0.78452118  0.20689677  0.45175966
   0.54680397  0.45709505  0.19603478
   0.44854689  0.89588492  0.80709204
   0.20934385  0.42693015  0.54304470
   0.12317984  0.55661481  0.80248751
   0.57924310  0.78799894  0.52017837
   0.44978093  0.53599541  0.80146174
   0.20268917  0.77701005  0.54503770
   0.99956097  0.26143946  0.99523481
   0.98990679  0.72764702  0.00316718
   0.73389718  0.71414474  0.99998520
   0.25577995  0.26562958  0.99175459
   0.27095306  0.00389336  0.00411055
   0.66177113  0.59061603  0.33507285
   0.63103408  0.04912692  0.34168120
   0.44162180  0.10973281  0.32498613
   0.91984901  0.58429797  0.33617007
   0.93957252  0.34844819  0.33061851
   0.40495402  0.32268180  0.32253252
   0.35854348  0.95081444  0.66667313
   0.35501939  0.41005174  0.65482856
   0.05715404  0.40892322  0.66569257
   0.57550436  0.89716704  0.66721020
   0.56661538  0.66021786  0.66171791
   0.05465793  0.63919834  0.67058868
   0.73088359  0.01150197  0.99414566
   0.75484122  0.44212375  0.68834741
   0.73961863  0.25512253  0.66923582
   0.99681699  0.22944387  0.10174708
   0.00174479  0.76130530  0.89671006
   0.76644550  0.76422592  0.10027678
   0.22246948  0.22196936  0.88789980
   0.22406442  0.00246863  0.10638475
   0.77055785  0.00160013  0.88963726
   0.23196069  0.99630800  0.89865910
   0.76917798  0.99882715  0.09908481
   0.22559376  0.23361619  0.09853823
   0.99722042  0.22846064  0.88976006
   0.99521131  0.76907657  0.10746146
   0.65927900  0.55300541  0.43911226
   0.44057157  0.11039461  0.43526211
   0.89300670  0.56146106  0.22822043
   0.89322396  0.32783076  0.43376838
   0.43815475  0.33482183  0.21573320
   0.89146309  0.33450678  0.22655694
   0.42851788  0.32622162  0.43038903
   0.44115866  0.11265702  0.21628433
   0.88634082  0.55156651  0.44129948
   0.66451750  0.56535618  0.22758832
   0.65645774  0.10077254  0.44180258
   0.34103756  0.90433217  0.76770796
   0.33194371  0.43713944  0.55247790
   0.10838829  0.43780846  0.76844634
   0.55839828  0.88910291  0.55816494
   0.55532197  0.65787217  0.77142723
   0.09354578  0.65955033  0.56412318
   0.55588436  0.66580967  0.55367271
   0.11061386  0.66373782  0.77200502
   0.09492415  0.43147530  0.56012713
   0.55460896  0.88259202  0.77507369
   0.33745829  0.42755961  0.76204990
   0.77307293  0.76670938  0.89175336
   0.65608907  0.09591973  0.23118476
   0.33221185  0.90012066  0.55629407
   0.56035756  0.02240390  0.03713179
   0.32024504  0.67254213  0.47907575
   0.78320238  0.60163331  0.75454143
   0.79746033  0.36512016  0.71022896
 
 position of ions in cartesian coordinates  (Angst):
  11.61297746  1.17111858  1.73534489
  -4.60849052 10.52099187 13.02549784
   6.79601923  9.41552025  1.89667399
  -0.04848622  2.34791591 12.78870384
   1.96418626  1.23280228  1.71997803
   4.78690917 10.71574631 13.01318934
   4.66915330  5.05489551  6.73249391
   8.84909167  2.77379585  3.24394197
   6.78058280  1.68349790  6.95439189
   6.79342176  6.39363921  3.05528536
   8.90812903  5.04163445  6.85647263
   4.74308475  2.80916846  2.70498948
  -2.13951332  9.19787645 11.45651343
   1.90682776  6.74869729  7.74832414
   0.09624723  5.31389374 11.39354010
   0.04550225 10.09054662  7.83567972
   2.08697703  8.97125378 11.89489747
  -2.12055013  6.63919561  7.86521227
  11.20383225  3.75251729  2.38736436
  -4.27991913  7.92891061 12.42212436
   4.67299032  7.98602480  2.56732790
   2.12150554  3.75330419 12.09647873
   4.24870311  0.19028077  2.63562579
   2.37527850 11.62233920 12.20674679
  -2.30105848 11.69690280 12.37438114
   9.23463403  0.05661021  2.39993025
   4.57281595  7.97955812 12.00864353
   2.33161309  3.83721266  2.32866438
  -2.07936856  3.99943701 12.28019542
   8.91702336  7.95107256  2.57158523
   4.46118633  7.58731483  7.46207728
  -2.10578419 11.77076740  7.00813319
  11.29468193  4.00500347  7.36202390
   2.21178179  4.15230692  7.11096874
   9.09351761  7.61561449  7.46427870
   8.83985126  0.09501429  7.60431383
  -0.05591904  2.88680508  1.91404062
   7.00351233  8.90338234 12.62429348
   4.41204833 10.41545116  1.64915504
   2.36811826  1.28002813 12.85221380
  -4.48769548 10.45687837  1.87311403
  11.12589948  1.47161338 12.71277377
   6.78607230  6.59162859  6.91612053
   6.73437352  1.03688746  2.58233963
   4.24426699  2.48874015  6.90680649
   9.23211263  5.37483740  2.88581304
   9.31367058  2.45025724  6.67113492
   4.35215702  5.41332982  2.89484563
   0.00826563 10.60987334 11.91832835
  -0.05635781  5.05609006  8.01914122
  -2.12136952  6.59193217 11.85033326
   2.53320668  9.33219073  7.68147406
   2.48588560  6.34773876 11.83518565
  -2.54103192  9.20205045  8.04857178
  11.88140403  3.09620078 14.69663263
   8.56168902  8.61744908  0.04676977
   5.15307928  8.45754304 14.76678167
   1.68154856  3.14582391 14.64524027
   3.67866222  0.04610868  0.06070043
   5.01138309  6.99460519  4.94802084
   8.29348578  0.58180509  5.04560635
   5.28888006  1.29955446  4.79907018
   8.58379798  6.91978102  4.96422347
  10.46613988  4.12663619  4.88224360
   3.33140952  3.82148748  4.76283775
  -1.59811168 11.26039804  9.84476219
   2.05116148  4.85620074  9.66985344
  -2.01443101  4.84283585  9.83028231
   1.73564247 10.62505737  9.85269312
   3.23422572  7.81889244  9.77158850
  -3.62307154  7.56996045  9.90258319
   9.91618855  0.13621663 14.68054919
   7.29943264  5.23602623 10.16482627
   8.36988460  3.02138995  9.88260551
  12.06265006  2.71728021  1.50249910
  -5.18156513  9.01606074 13.24171766
   5.25574759  9.05064930  1.48078716
   1.52455465  2.62876034 13.11161656
   3.04720177  0.02923576  1.57098365
  10.52643786  0.01895019 13.13727363
  -3.64019356 11.79917361 13.27049910
   3.68902835 11.82900763  1.46318534
   1.48764394  2.76669259  1.45511412
  12.07488978  2.70563601 13.13908695
   8.35095373  9.10809499  1.58688337
   5.23446588  6.54918647  6.48437084
   5.26999319  1.30739204  6.42751561
   8.37287677  6.64932579  3.37013111
   9.97329499  3.88246606  6.40545781
   3.70242193  3.96526064  3.18573214
   9.90356787  3.96152948  3.34556641
   3.62944168  3.86340924  6.35555496
   5.26255241  1.33418558  3.19387076
   8.34937486  6.53214572  6.51666949
   5.22165408  6.69545529  3.36079683
   8.28802749  1.19343886  6.52409876
  -1.51968256 10.70991320 11.33674367
   1.55038939  5.17699760  8.15844128
  -1.51130549  5.18492079 11.34764719
   1.55685540 10.52955471  8.24242172
   3.09582697  7.79111274 11.39166610
  -3.23043688  7.81098700  8.33040711
   3.04924505  7.88511573  8.17608499
  -3.02566285  7.86057896 11.40019836
  -1.65212465  5.10991782  8.27139749
   1.54955462 10.45244683 11.44551339
   1.69130340  5.06354462 11.25319100
   5.32939704  9.08006061 13.16852205
   8.31616694  1.13596757  3.41390544
  -1.61157791 10.66003671  8.21479463
   7.50970307  0.26532707  0.54832520
  -0.21915583  7.96484752  7.07451166
   6.59662492  7.12508160 11.14231350
   8.40876101  4.32408067 10.48795126
 


--------------------------------------------------------------------------------------------------------


 k-point  1 :   0.0000 0.0000 0.0000  plane waves:   43405

 maximum and minimum number of plane-waves per node :     10852    10850

 maximum number of plane-waves:     43405
 maximum index in each direction: 
   IXMAX=   22   IYMAX=   22   IZMAX=   24
   IXMIN=  -22   IYMIN=  -22   IZMIN=  -24


 real space projection operators:
  total allocation   :      30795.41 KBytes
  max/ min on nodes  :       7865.69       7526.94


 parallel 3D FFT for wavefunctions:
    minimum data exchange during FFTs selected (reduces bandwidth)
 parallel 3D FFT for charge:
    minimum data exchange during FFTs selected (reduces bandwidth)


 FFT grid for exact exchange (Hartree Fock) 
  NGX = 70; NGY = 70; NGZ = 80

 
 Radii for the augmentation spheres in the non-local exchange
 for species   1 augmentation radius   0.820 (default was   0.722)
       energy cutoff for augmentation   1600.0
 for species   2 augmentation radius   1.055 (default was   0.989)
       energy cutoff for augmentation   1600.0
 for species   3 augmentation radius   1.041 (default was   1.041)
       energy cutoff for augmentation   1600.0
 for species   4 augmentation radius   1.279 (default was   1.125)
       energy cutoff for augmentation   1600.0
 for species   5 augmentation radius   1.034 (default was   0.970)
       energy cutoff for augmentation   1600.0

 real space projection operators:
  total allocation   :       4887.24 KBytes
  max/ min on nodes  :       1249.97       1193.55

 Maximum index for augmentation-charges in exchange          370
  SETUP_FOCK is finished

 total amount of memory used by VASP MPI-rank0   222116. kBytes
=======================================================================

   base      :      30000. kBytes
   nonlr-proj:      23285. kBytes
   fftplans  :      69849. kBytes
   grid      :      59474. kBytes
   one-center:        902. kBytes
   HF        :        259. kBytes
   wavefun   :      38347. kBytes
 
     INWAV:  cpu time    0.0000: real time    0.0002
 initial charge density was supplied:
 charge density of overlapping atoms calculated
 number of electron     624.0000000 magnetization     114.0000000
 keeping initial charge density in first step


--------------------------------------------------------------------------------------------------------


 Maximum index for non-local projection operator         1316
 Maximum index for augmentation-charges         7875 (set IRDMAX)


--------------------------------------------------------------------------------------------------------


 First call to EWALD:  gamma=   0.133
 Maximum number of real-space cells 3x 3x 3
 Maximum number of reciprocal cells 3x 3x 3

    FEWALD:  cpu time    0.0052: real time    0.0052


--------------------------------------- Iteration      1(   1)  ---------------------------------------


    POTLOK:  cpu time    1.5227: real time    1.5640
    SETDIJ:  cpu time    0.5899: real time    0.5913
     EDDAV:  cpu time   13.8411: real time   13.8748
       DOS:  cpu time    0.0007: real time    0.0007
    --------------------------------------------
      LOOP:  cpu time   15.9544: real time   16.0308

 eigenvalue-minimisations  :  1744
 total energy-change (2. order) : 0.5457957E+04  (-0.2497098E+05)
 number of electron     624.0000000 magnetization     114.0000000
 augmentation part      624.0000000 magnetization     114.0000000

 Free energy of the ion-electron system (eV)
  ---------------------------------------------------
  alpha Z        PSCENC =       651.60147728
  Ewald energy   TEWEN  =     -6826.32923361
  -Hartree energ DENC   =    -28701.68428404
  -exchange      EXHF   =         0.00000000
  -V(xc)+E(xc)   XCENC  =      1277.68827141
  PAW double counting   =     22424.16227549   -21858.83277747
  entropy T*S    EENTRO =        -0.03121484
  eigenvalues    EBANDS =       -63.48366486
  atomic energy  EATOM  =     38554.86610724
  Solvation  Ediel_sol  =         0.00000000
  ---------------------------------------------------
  free energy    TOTEN  =      5457.95695661 eV

  energy without entropy =     5457.98817144  energy(sigma->0) =     5457.97256403
  exchange ACFDT corr.  =         0.00000000  see jH, gK, PRB 81, 115126


--------------------------------------------------------------------------------------------------------




--------------------------------------- Iteration      1(   2)  ---------------------------------------


     EDDAV:  cpu time   16.2970: real time   16.3421
       DOS:  cpu time    0.0003: real time    0.0003
    --------------------------------------------
      LOOP:  cpu time   16.2973: real time   16.3423

 eigenvalue-minimisations  :  2144
 total energy-change (2. order) :-0.4391951E+04  (-0.4129110E+04)
 number of electron     624.0000000 magnetization     114.0000000
 augmentation part      624.0000000 magnetization     114.0000000

 Free energy of the ion-electron system (eV)
  ---------------------------------------------------
  alpha Z        PSCENC =       651.60147728
  Ewald energy   TEWEN  =     -6826.32923361
  -Hartree energ DENC   =    -28701.68428404
  -exchange      EXHF   =         0.00000000
  -V(xc)+E(xc)   XCENC  =      1277.68827141
  PAW double counting   =     22424.16227549   -21858.83277747
  entropy T*S    EENTRO =        -0.00000000
  eigenvalues    EBANDS =     -4455.46621211
  atomic energy  EATOM  =     38554.86610724
  Solvation  Ediel_sol  =         0.00000000
  ---------------------------------------------------
  free energy    TOTEN  =      1066.00562419 eV

  energy without entropy =     1066.00562419  energy(sigma->0) =     1066.00562419
  exchange ACFDT corr.  =         0.00000000  see jH, gK, PRB 81, 115126


--------------------------------------------------------------------------------------------------------




--------------------------------------- Iteration      1(   3)  ---------------------------------------


     EDDAV:  cpu time   15.8117: real time   15.8571
       DOS:  cpu time    0.0003: real time    0.0003
    --------------------------------------------
      LOOP:  cpu time   15.8120: real time   15.8574

 eigenvalue-minimisations  :  2064
 total energy-change (2. order) :-0.5120011E+03  (-0.5076770E+03)
 number of electron     624.0000000 magnetization     114.0000000
 augmentation part      624.0000000 magnetization     114.0000000

 Free energy of the ion-electron system (eV)
  ---------------------------------------------------
  alpha Z        PSCENC =       651.60147728
  Ewald energy   TEWEN  =     -6826.32923361
  -Hartree energ DENC   =    -28701.68428404
  -exchange      EXHF   =         0.00000000
  -V(xc)+E(xc)   XCENC  =      1277.68827141
  PAW double counting   =     22424.16227549   -21858.83277747
  entropy T*S    EENTRO =        -0.00000000
  eigenvalues    EBANDS =     -4967.46735713
  atomic energy  EATOM  =     38554.86610724
  Solvation  Ediel_sol  =         0.00000000
  ---------------------------------------------------
  free energy    TOTEN  =       554.00447917 eV

  energy without entropy =      554.00447917  energy(sigma->0) =      554.00447917
  exchange ACFDT corr.  =         0.00000000  see jH, gK, PRB 81, 115126


--------------------------------------------------------------------------------------------------------




--------------------------------------- Iteration      1(   4)  ---------------------------------------


     EDDAV:  cpu time   16.0914: real time   16.1321
       DOS:  cpu time    0.0003: real time    0.0003
    --------------------------------------------
      LOOP:  cpu time   16.0916: real time   16.1324

 eigenvalue-minimisations  :  2128
 total energy-change (2. order) :-0.1129238E+02  (-0.1124168E+02)
 number of electron     624.0000000 magnetization     114.0000000
 augmentation part      624.0000000 magnetization     114.0000000

 Free energy of the ion-electron system (eV)
  ---------------------------------------------------
  alpha Z        PSCENC =       651.60147728
  Ewald energy   TEWEN  =     -6826.32923361
  -Hartree energ DENC   =    -28701.68428404
  -exchange      EXHF   =         0.00000000
  -V(xc)+E(xc)   XCENC  =      1277.68827141
  PAW double counting   =     22424.16227549   -21858.83277747
  entropy T*S    EENTRO =        -0.00000000
  eigenvalues    EBANDS =     -4978.75974187
  atomic energy  EATOM  =     38554.86610724
  Solvation  Ediel_sol  =         0.00000000
  ---------------------------------------------------
  free energy    TOTEN  =       542.71209443 eV

  energy without entropy =      542.71209443  energy(sigma->0) =      542.71209443
  exchange ACFDT corr.  =         0.00000000  see jH, gK, PRB 81, 115126


--------------------------------------------------------------------------------------------------------




--------------------------------------- Iteration      1(   5)  ---------------------------------------


     EDDAV:  cpu time 1925.4160: real time 1930.2919
       DOS:  cpu time    0.0003: real time    0.0003
    CHARGE:  cpu time    1.0227: real time    1.0252
    MIXING:  cpu time    0.0326: real time    0.0327
    --------------------------------------------
      LOOP:  cpu time 1926.4717: real time 1931.3501

 eigenvalue-minimisations  :  2192
 total energy-change (2. order) :-0.1850276E+04  (-0.4352090E+02)
 number of electron     624.0000002 magnetization     -68.4000000
 augmentation part       70.0721091 magnetization     -67.3811736

 Free energy of the ion-electron system (eV)
  ---------------------------------------------------
  alpha Z        PSCENC =       651.60147728
  Ewald energy   TEWEN  =     -6826.32923361
  -Hartree energ DENC   =    -28701.68428404
  -exchange      EXHF   =      1784.53672008
  -V(xc)+E(xc)   XCENC  =      1277.68827141
  PAW double counting   =     22424.16227549   -21858.83277747
  entropy T*S    EENTRO =        -0.00000000
  eigenvalues    EBANDS =     -8613.57260934
  atomic energy  EATOM  =     38554.86610724
  Solvation  Ediel_sol  =         0.00000000
  ---------------------------------------------------
  free energy    TOTEN  =     -1307.56405296 eV

  energy without entropy =    -1307.56405296  energy(sigma->0) =    -1307.56405296
  exchange ACFDT corr.  =         0.00000000  see jH, gK, PRB 81, 115126


--------------------------------------------------------------------------------------------------------




--------------------------------------- Iteration      1(   6)  ---------------------------------------


    POTLOK:  cpu time    1.3903: real time    1.4078
    SETDIJ:  cpu time    0.6051: real time    0.6066
     EDDAV:  cpu time 1810.2021: real time 1814.7092
       DOS:  cpu time    0.0003: real time    0.0003
    CHARGE:  cpu time    1.0416: real time    1.0440
    MIXING:  cpu time    0.0337: real time    0.0338
    --------------------------------------------
      LOOP:  cpu time 1813.2730: real time 1817.8017

 eigenvalue-minimisations  :  2008
 total energy-change (2. order) : 0.1884025E+03  (-0.2895155E+02)
 number of electron     624.0000003 magnetization      41.0400000
 augmentation part       63.7254780 magnetization      41.2776109

 Free energy of the ion-electron system (eV)
  ---------------------------------------------------
  alpha Z        PSCENC =       651.60147728
  Ewald energy   TEWEN  =     -6826.32923361
  -Hartree energ DENC   =    -30060.74327569
  -exchange      EXHF   =      1914.29819966
  -V(xc)+E(xc)   XCENC  =      1392.45809899
  PAW double counting   =     26294.48369215   -25748.00439357
  entropy T*S    EENTRO =        -0.00000000
  eigenvalues    EBANDS =     -7291.79220396
  atomic energy  EATOM  =     38554.86610724
  Solvation  Ediel_sol  =         0.00000000
  ---------------------------------------------------
  free energy    TOTEN  =     -1119.16153151 eV

  energy without entropy =    -1119.16153151  energy(sigma->0) =    -1119.16153151
  exchange ACFDT corr.  =        -0.00000000  see jH, gK, PRB 81, 115126


--------------------------------------------------------------------------------------------------------




--------------------------------------- Iteration      1(   7)  ---------------------------------------


    POTLOK:  cpu time    1.3111: real time    1.3246
    SETDIJ:  cpu time    0.5985: real time    0.5999
     EDDAV:  cpu time 1732.6954: real time 1736.8879
       DOS:  cpu time    0.0003: real time    0.0003
    CHARGE:  cpu time    1.0430: real time    1.0455
    MIXING:  cpu time    0.0368: real time    0.0368
    --------------------------------------------
      LOOP:  cpu time 1735.6850: real time 1739.8951

 eigenvalue-minimisations  :  1904
 total energy-change (2. order) :-0.3516574E+02  (-0.1519629E+02)
 number of electron     624.0000003 magnetization     -24.6240000
 augmentation part       59.9326611 magnetization     -24.8915071

 Free energy of the ion-electron system (eV)
  ---------------------------------------------------
  alpha Z        PSCENC =       651.60147728
  Ewald energy   TEWEN  =     -6826.32923361
  -Hartree energ DENC   =    -30547.05676272
  -exchange      EXHF   =      1836.47926587
  -V(xc)+E(xc)   XCENC  =      1383.52934049
  PAW double counting   =     27811.00578860   -27267.59181733
  entropy T*S    EENTRO =        -0.00000000
  eigenvalues    EBANDS =     -6750.83144216
  atomic energy  EATOM  =     38554.86610724
  Solvation  Ediel_sol  =         0.00000000
  ---------------------------------------------------
  free energy    TOTEN  =     -1154.32727635 eV

  energy without entropy =    -1154.32727635  energy(sigma->0) =    -1154.32727635
  exchange ACFDT corr.  =        -0.00000000  see jH, gK, PRB 81, 115126


--------------------------------------------------------------------------------------------------------




--------------------------------------- Iteration      1(   8)  ---------------------------------------


    POTLOK:  cpu time    1.3334: real time    1.3465
    SETDIJ:  cpu time    0.5938: real time    0.5952
     EDDAV:  cpu time 1720.8056: real time 1724.9563
       DOS:  cpu time    0.0003: real time    0.0003
    CHARGE:  cpu time    1.0150: real time    1.0174
    MIXING:  cpu time    0.0331: real time    0.0331
    --------------------------------------------
      LOOP:  cpu time 1723.7811: real time 1727.9488

 eigenvalue-minimisations  :  1872
 total energy-change (2. order) :-0.2091353E+02  (-0.4846111E+01)
 number of electron     624.0000003 magnetization      14.7744000
 augmentation part       59.4545302 magnetization      14.7460832

 Free energy of the ion-electron system (eV)
  ---------------------------------------------------
  alpha Z        PSCENC =       651.60147728
  Ewald energy   TEWEN  =     -6826.32923361
  -Hartree energ DENC   =    -30588.34633226
  -exchange      EXHF   =      1789.15379625
  -V(xc)+E(xc)   XCENC  =      1370.62354177
  PAW double counting   =     28143.28398248   -27598.05418527
  entropy T*S    EENTRO =        -0.00000000
  eigenvalues    EBANDS =     -6672.03996448
  atomic energy  EATOM  =     38554.86610724
  Solvation  Ediel_sol  =         0.00000000
  ---------------------------------------------------
  free energy    TOTEN  =     -1175.24081060 eV

  energy without entropy =    -1175.24081060  energy(sigma->0) =    -1175.24081060
  exchange ACFDT corr.  =         0.00000000  see jH, gK, PRB 81, 115126


--------------------------------------------------------------------------------------------------------




--------------------------------------- Iteration      1(   9)  ---------------------------------------


    POTLOK:  cpu time    1.2718: real time    1.2842
    SETDIJ:  cpu time    0.5940: real time    0.5954
     EDDAV:  cpu time 1700.5865: real time 1704.8108
       DOS:  cpu time    0.0003: real time    0.0003
    CHARGE:  cpu time    1.0417: real time    1.0442
    MIXING:  cpu time    0.0258: real time    0.0258
    --------------------------------------------
      LOOP:  cpu time 1703.5200: real time 1707.7608

 eigenvalue-minimisations  :  1840
 total energy-change (2. order) :-0.1377233E+02  (-0.2035386E+01)
 number of electron     624.0000004 magnetization      -8.8646400
 augmentation part       59.7180546 magnetization      -8.9897386

 Free energy of the ion-electron system (eV)
  ---------------------------------------------------
  alpha Z        PSCENC =       651.60147728
  Ewald energy   TEWEN  =     -6826.32923361
  -Hartree energ DENC   =    -30583.78315418
  -exchange      EXHF   =      1781.41129240
  -V(xc)+E(xc)   XCENC  =      1357.83048150
  PAW double counting   =     28261.56229791   -27715.09043375
  entropy T*S    EENTRO =        -0.00000000
  eigenvalues    EBANDS =     -6671.08197869
  atomic energy  EATOM  =     38554.86610724
  Solvation  Ediel_sol  =         0.00000000
  ---------------------------------------------------
  free energy    TOTEN  =     -1189.01314390 eV

  energy without entropy =    -1189.01314390  energy(sigma->0) =    -1189.01314390
  exchange ACFDT corr.  =        -0.00000000  see jH, gK, PRB 81, 115126


--------------------------------------------------------------------------------------------------------




--------------------------------------- Iteration      1(  10)  ---------------------------------------


    POTLOK:  cpu time    1.3914: real time    1.4007
    SETDIJ:  cpu time    0.5947: real time    0.5961
     EDDAV:  cpu time 1713.4572: real time 1717.6913
       DOS:  cpu time    0.0003: real time    0.0003
    CHARGE:  cpu time    1.0321: real time    1.0345
    MIXING:  cpu time    0.0355: real time    0.0356
    --------------------------------------------
      LOOP:  cpu time 1716.5112: real time 1720.7586

 eigenvalue-minimisations  :  1864
 total energy-change (2. order) :-0.3802405E+01  (-0.9054521E+00)
 number of electron     624.0000004 magnetization       5.3187840
 augmentation part       59.9363761 magnetization       5.3042655

 Free energy of the ion-electron system (eV)
  ---------------------------------------------------
  alpha Z        PSCENC =       651.60147728
  Ewald energy   TEWEN  =     -6826.32923361
  -Hartree energ DENC   =    -30604.32053403
  -exchange      EXHF   =      1783.73506017
  -V(xc)+E(xc)   XCENC  =      1355.79221920
  PAW double counting   =     28365.46197850   -27818.64596768
  entropy T*S    EENTRO =        -0.00000000
  eigenvalues    EBANDS =     -6654.97665634
  atomic energy  EATOM  =     38554.86610724
  Solvation  Ediel_sol  =         0.00000000
  ---------------------------------------------------
  free energy    TOTEN  =     -1192.81554927 eV

  energy without entropy =    -1192.81554927  energy(sigma->0) =    -1192.81554927
  exchange ACFDT corr.  =        -0.00000000  see jH, gK, PRB 81, 115126


--------------------------------------------------------------------------------------------------------




--------------------------------------- Iteration      1(  11)  ---------------------------------------


    POTLOK:  cpu time    1.4600: real time    1.4721
    SETDIJ:  cpu time    0.6072: real time    0.6087
     EDDAV:  cpu time 1689.2134: real time 1693.4108
       DOS:  cpu time    0.0003: real time    0.0003
    CHARGE:  cpu time    1.0405: real time    1.0430
    MIXING:  cpu time    0.0320: real time    0.0321
    --------------------------------------------
      LOOP:  cpu time 1692.3534: real time 1696.5669

 eigenvalue-minimisations  :  1824
 total energy-change (2. order) :-0.4850203E+01  (-0.3842215E+00)
 number of electron     624.0000004 magnetization      -3.1912704
 augmentation part       59.9308002 magnetization      -3.2211856

 Free energy of the ion-electron system (eV)
  ---------------------------------------------------
  alpha Z        PSCENC =       651.60147728
  Ewald energy   TEWEN  =     -6826.32923361
  -Hartree energ DENC   =    -30635.01926239
  -exchange      EXHF   =      1785.45300063
  -V(xc)+E(xc)   XCENC  =      1353.19904959
  PAW double counting   =     28450.28275995   -27903.51039330
  entropy T*S    EENTRO =        -0.00000000
  eigenvalues    EBANDS =     -6628.20925719
  atomic energy  EATOM  =     38554.86610724
  Solvation  Ediel_sol  =         0.00000000
  ---------------------------------------------------
  free energy    TOTEN  =     -1197.66575180 eV

  energy without entropy =    -1197.66575180  energy(sigma->0) =    -1197.66575180
  exchange ACFDT corr.  =         0.00000000  see jH, gK, PRB 81, 115126


--------------------------------------------------------------------------------------------------------




--------------------------------------- Iteration      1(  12)  ---------------------------------------


    POTLOK:  cpu time    1.3654: real time    1.3782
    SETDIJ:  cpu time    0.5917: real time    0.5932
     EDDAV:  cpu time 1699.7268: real time 1703.8310
       DOS:  cpu time    0.0003: real time    0.0003
    CHARGE:  cpu time    1.0325: real time    1.0350
    MIXING:  cpu time    0.0335: real time    0.0336
    --------------------------------------------
      LOOP:  cpu time 1702.7501: real time 1706.8712

 eigenvalue-minimisations  :  1840
 total energy-change (2. order) :-0.3304356E+00  (-0.1236316E+00)
 number of electron     624.0000004 magnetization       1.9147622
 augmentation part       59.8982524 magnetization       1.9159380

 Free energy of the ion-electron system (eV)
  ---------------------------------------------------
  alpha Z        PSCENC =       651.60147728
  Ewald energy   TEWEN  =     -6826.32923361
  -Hartree energ DENC   =    -30654.04804705
  -exchange      EXHF   =      1784.75428161
  -V(xc)+E(xc)   XCENC  =      1353.69416675
  PAW double counting   =     28493.92944903   -27947.20368305
  entropy T*S    EENTRO =        -0.00000000
  eigenvalues    EBANDS =     -6609.26070565
  atomic energy  EATOM  =     38554.86610724
  Solvation  Ediel_sol  =         0.00000000
  ---------------------------------------------------
  free energy    TOTEN  =     -1197.99618744 eV

  energy without entropy =    -1197.99618744  energy(sigma->0) =    -1197.99618744
  exchange ACFDT corr.  =        -0.00000000  see jH, gK, PRB 81, 115126


--------------------------------------------------------------------------------------------------------




--------------------------------------- Iteration      1(  13)  ---------------------------------------


    POTLOK:  cpu time    1.4478: real time    1.4589
    SETDIJ:  cpu time    0.5976: real time    0.5991
     EDDAV:  cpu time 1730.9714: real time 1735.1507
       DOS:  cpu time    0.0003: real time    0.0003
    CHARGE:  cpu time    1.0180: real time    1.0204
    MIXING:  cpu time    0.0328: real time    0.0329
    --------------------------------------------
      LOOP:  cpu time 1734.0678: real time 1738.2623

 eigenvalue-minimisations  :  1872
 total energy-change (2. order) :-0.9311317E+00  (-0.5019367E-01)
 number of electron     624.0000004 magnetization      -1.1488573
 augmentation part       59.8706329 magnetization      -1.1532952

 Free energy of the ion-electron system (eV)
  ---------------------------------------------------
  alpha Z        PSCENC =       651.60147728
  Ewald energy   TEWEN  =     -6826.32923361
  -Hartree energ DENC   =    -30665.44589017
  -exchange      EXHF   =      1784.17161097
  -V(xc)+E(xc)   XCENC  =      1353.37760088
  PAW double counting   =     28512.86379258   -27966.13364964
  entropy T*S    EENTRO =        -0.00000000
  eigenvalues    EBANDS =     -6597.89913462
  atomic energy  EATOM  =     38554.86610724
  Solvation  Ediel_sol  =         0.00000000
  ---------------------------------------------------
  free energy    TOTEN  =     -1198.92731910 eV

  energy without entropy =    -1198.92731910  energy(sigma->0) =    -1198.92731910
  exchange ACFDT corr.  =        -0.00000000  see jH, gK, PRB 81, 115126


--------------------------------------------------------------------------------------------------------




--------------------------------------- Iteration      1(  14)  ---------------------------------------


    POTLOK:  cpu time    1.4059: real time    1.4176
    SETDIJ:  cpu time    0.5855: real time    0.5869
     EDDAV:  cpu time 1714.4390: real time 1718.5761
       DOS:  cpu time    0.0003: real time    0.0003
    CHARGE:  cpu time    1.0178: real time    1.0203
    MIXING:  cpu time    0.0377: real time    0.0378
    --------------------------------------------
      LOOP:  cpu time 1717.4863: real time 1721.6389

 eigenvalue-minimisations  :  1856
 total energy-change (2. order) : 0.5930972E-01  (-0.1540549E-01)
 number of electron     624.0000004 magnetization       0.6893144
 augmentation part       59.8679936 magnetization       0.6930534

 Free energy of the ion-electron system (eV)
  ---------------------------------------------------
  alpha Z        PSCENC =       651.60147728
  Ewald energy   TEWEN  =     -6826.32923361
  -Hartree energ DENC   =    -30671.53705382
  -exchange      EXHF   =      1783.67766810
  -V(xc)+E(xc)   XCENC  =      1353.51634722
  PAW double counting   =     28518.95754767   -27972.19978226
  entropy T*S    EENTRO =        -0.00000000
  eigenvalues    EBANDS =     -6591.42108719
  atomic energy  EATOM  =     38554.86610724
  Solvation  Ediel_sol  =         0.00000000
  ---------------------------------------------------
  free energy    TOTEN  =     -1198.86800938 eV

  energy without entropy =    -1198.86800938  energy(sigma->0) =    -1198.86800938
  exchange ACFDT corr.  =        -0.00000000  see jH, gK, PRB 81, 115126


--------------------------------------------------------------------------------------------------------




--------------------------------------- Iteration      1(  15)  ---------------------------------------


    POTLOK:  cpu time    1.4249: real time    1.4359
    SETDIJ:  cpu time    0.5834: real time    0.5848
     EDDAV:  cpu time 1738.7760: real time 1742.9728
       DOS:  cpu time    0.0003: real time    0.0003
    CHARGE:  cpu time    1.0251: real time    1.0282
    MIXING:  cpu time    0.0335: real time    0.0335
    --------------------------------------------
      LOOP:  cpu time 1741.8431: real time 1746.0555

 eigenvalue-minimisations  :  1920
 total energy-change (2. order) :-0.1387589E+00  (-0.7628506E-02)
 number of electron     624.0000004 magnetization      -0.4135886
 augmentation part       59.8664503 magnetization      -0.4141255

 Free energy of the ion-electron system (eV)
  ---------------------------------------------------
  alpha Z        PSCENC =       651.60147728
  Ewald energy   TEWEN  =     -6826.32923361
  -Hartree energ DENC   =    -30676.74789369
  -exchange      EXHF   =      1783.64622053
  -V(xc)+E(xc)   XCENC  =      1353.52584762
  PAW double counting   =     28521.92432071   -27975.14550590
  entropy T*S    EENTRO =        -0.00000000
  eigenvalues    EBANDS =     -6586.34810849
  atomic energy  EATOM  =     38554.86610724
  Solvation  Ediel_sol  =         0.00000000
  ---------------------------------------------------
  free energy    TOTEN  =     -1199.00676831 eV

  energy without entropy =    -1199.00676831  energy(sigma->0) =    -1199.00676831
  exchange ACFDT corr.  =         0.00000000  see jH, gK, PRB 81, 115126


--------------------------------------------------------------------------------------------------------




--------------------------------------- Iteration      1(  16)  ---------------------------------------


    POTLOK:  cpu time    1.4375: real time    1.4488
    SETDIJ:  cpu time    0.5946: real time    0.5960
     EDDAV:  cpu time 1733.8939: real time 1738.0843
       DOS:  cpu time    0.0003: real time    0.0003
    CHARGE:  cpu time    1.0226: real time    1.0250
    MIXING:  cpu time    0.0330: real time    0.0331
    --------------------------------------------
      LOOP:  cpu time 1736.9819: real time 1741.1875

 eigenvalue-minimisations  :  1904
 total energy-change (2. order) : 0.7349192E-02  (-0.1915371E-02)
 number of electron     624.0000004 magnetization       0.2481532
 augmentation part       59.8651265 magnetization       0.2497115

 Free energy of the ion-electron system (eV)
  ---------------------------------------------------
  alpha Z        PSCENC =       651.60147728
  Ewald energy   TEWEN  =     -6826.32923361
  -Hartree energ DENC   =    -30680.89472674
  -exchange      EXHF   =      1783.58708285
  -V(xc)+E(xc)   XCENC  =      1353.59585654
  PAW double counting   =     28523.21925267   -27976.42795097
  entropy T*S    EENTRO =        -0.00000000
  eigenvalues    EBANDS =     -6582.21728439
  atomic energy  EATOM  =     38554.86610724
  Solvation  Ediel_sol  =         0.00000000
  ---------------------------------------------------
  free energy    TOTEN  =     -1198.99941912 eV

  energy without entropy =    -1198.99941912  energy(sigma->0) =    -1198.99941912
  exchange ACFDT corr.  =         0.00000000  see jH, gK, PRB 81, 115126


--------------------------------------------------------------------------------------------------------




[...]
      4.57282      7.97956     12.00864        -0.446713      0.128456     -0.053705
      2.33161      3.83721      2.32866         0.201182     -0.365051     -0.007637
     -2.07937      3.99944     12.28020         0.391560     -0.013913     -0.044839
      8.91702      7.95107      2.57159        -0.424974     -0.058207     -0.059795
      4.46119      7.58731      7.46208        -0.255799     -0.287425     -0.088897
     -2.10578     11.77077      7.00813         0.352109      0.319536      0.021385
     11.29468      4.00500      7.36202        -0.194384      0.404209      0.009786
      2.21178      4.15231      7.11097         0.259567      0.313572      0.122504
      9.09352      7.61561      7.46428         0.234949     -0.342366     -0.029664
      8.83985      0.09501      7.60431        -0.370484     -0.141268     -0.147032
     -0.05592      2.88681      1.91404         0.006543     -0.118614     -0.342403
      7.00351      8.90338     12.62429         0.302426      0.051359      0.376531
      4.41205     10.41545      1.64916         0.048658      0.032664     -0.160452
      2.36812      1.28003     12.85221        -0.014570      0.008077      0.282378
     -4.48770     10.45688      1.87311        -0.050198      0.045661     -0.251280
     11.12590      1.47161     12.71277         0.151269     -0.041113      0.330444
      6.78607      6.59163      6.91612         0.003002     -0.050595     -0.332809
      6.73437      1.03689      2.58234        -0.278598      0.145794      0.369771
      4.24427      2.48874      6.90681         0.128551      0.136533     -0.395909
      9.23211      5.37484      2.88581        -0.098417     -0.027286      0.362889
      9.31367      2.45026      6.67113        -0.112995      0.133183     -0.194254
      4.35216      5.41333      2.89485         0.093869     -0.071694      0.306514
      0.00827     10.60987     11.91833         0.018973     -0.033304     -0.379020
     -0.05636      5.05609      8.01914        -0.000111      0.119850      0.163626
     -2.12137      6.59193     11.85033        -0.094726     -0.055451     -0.377516
      2.53321      9.33219      7.68147        -0.180164     -0.168985      0.386410
      2.48589      6.34774     11.83519        -0.102368      0.029668     -0.400140
     -2.54103      9.20205      8.04857        -0.050510     -0.343217      0.170330
     11.88140      3.09620     14.69663         0.153480     -0.303585     -0.012905
      8.56169      8.61745      0.04677        -0.104482      0.339323      0.009742
      5.15308      8.45754     14.76678         0.104381      0.390772      0.281040
      1.68155      3.14582     14.64524        -0.143340     -0.349069      0.004185
      3.67866      0.04611      0.06070        -0.408542     -0.029608     -0.012079
      5.01138      6.99461      4.94802         0.174416     -0.300783      0.005689
      8.29349      0.58181      5.04561        -0.021809      0.389528      0.261822
      5.28888      1.29955      4.79907        -0.022038      0.056079      0.000889
      8.58380      6.91978      4.96422        -0.174018     -0.272613      0.004070
     10.46614      4.12664      4.88224        -0.408958     -0.130783      0.027835
      3.33141      3.82149      4.76284         0.274067      0.065345      0.005360
     -1.59811     11.26040      9.84476         0.040721     -0.378643      0.289908
      2.05116      4.85620      9.66985        -0.320320      0.225123     -0.004549
     -2.01443      4.84284      9.83028         0.304662      0.253893     -0.025600
      1.73564     10.62506      9.85269        -0.137962     -0.141727      0.027907
      3.23423      7.81889      9.77159        -0.155800      0.007604     -0.045138
     -3.62307      7.56996      9.90258         0.368084      0.164826     -0.012170
      9.91619      0.13622     14.68055         0.424193     -0.075153      0.014337
      7.29943      5.23603     10.16483         1.359923     -1.200479      0.380677
      8.36988      3.02139      9.88261         0.021502      1.656079      0.778210
     12.06265      2.71728      1.50250         0.025262      0.032287      0.029529
     -5.18157      9.01606     13.24172        -0.154242     -0.028125     -0.067616
      5.25575      9.05065      1.48079        -0.055655      0.011981     -0.007988
      1.52455      2.62876     13.11162         0.045976     -0.005203     -0.052303
      3.04720      0.02924      1.57098         0.022163     -0.051468      0.066303
     10.52644      0.01895     13.13727        -0.003141     -0.008247      0.009684
     -3.64019     11.79917     13.27050         0.006707      0.017091     -0.057955
      3.68903     11.82901      1.46319        -0.084614     -0.059712      0.039935
      1.48764      2.76669      1.45511        -0.032883      0.053440      0.046458
     12.07489      2.70564     13.13909        -0.066890      0.005489     -0.041899
      8.35095      9.10809      1.58688         0.028783      0.005423      0.026923
      5.23447      6.54919      6.48437         0.015809      0.034801      0.064684
      5.26999      1.30739      6.42752        -0.070007     -0.039835      0.014976
      8.37288      6.64933      3.37013         0.060948      0.017365     -0.040486
      9.97329      3.88247      6.40546         0.031462     -0.059939      0.061659
      3.70242      3.96526      3.18573        -0.027210      0.031808     -0.045430
      9.90357      3.96153      3.34557         0.008401      0.005177     -0.036899
      3.62944      3.86341      6.35555        -0.019768     -0.056677      0.061827
      5.26255      1.33419      3.19387         0.160422     -0.053715      0.002449
      8.34937      6.53215      6.51667        -0.027963      0.048206      0.072532
      5.22165      6.69546      3.36080        -0.069490      0.032135     -0.036798
      8.28803      1.19344      6.52410         0.056674     -0.036803      0.020501
     -1.51968     10.70991     11.33674         0.024822      0.052797     -0.014484
      1.55039      5.17700      8.15844        -0.007281     -0.041781     -0.039496
     -1.51131      5.18492     11.34765        -0.029110     -0.005376      0.029232
      1.55686     10.52955      8.24242        -0.064566      0.039875     -0.030060
      3.09583      7.79111     11.39167         0.144815      0.011734      0.100433
     -3.23044      7.81099      8.33041        -0.004682      0.068605     -0.055239
      3.04925      7.88512      8.17608         0.051491      0.031886      0.000872
     -3.02566      7.86058     11.40020        -0.018561     -0.027976      0.063359
     -1.65212      5.10992      8.27140        -0.011475     -0.026155     -0.021444
      1.54955     10.45245     11.44551         0.008571      0.032168      0.009486
      1.69130      5.06354     11.25319         0.044989      0.006299      0.040462
      5.32940      9.08006     13.16852         0.039082     -0.058662     -0.070919
      8.31617      1.13597      3.41391        -0.038529     -0.060940     -0.035449
     -1.61158     10.66004      8.21479         0.017544      0.003207     -0.036536
      7.50970      0.26533      0.54833        -0.007211     -0.018510      0.004604
     -0.21916      7.96485      7.07451         0.003471      0.012242     -0.032165
      6.59662      7.12508     11.14231        -0.038619      0.111917      0.023650
      8.40876      4.32408     10.48795        -1.356438     -0.592104     -1.173614
 -----------------------------------------------------------------------------------
    total drift:                               -0.004847     -0.005665      0.010614


--------------------------------------------------------------------------------------------------------



  FREE ENERGIE OF THE ION-ELECTRON SYSTEM (eV)
  ---------------------------------------------------
  free  energy   TOTEN  =     -1199.01856657 eV

  energy  without entropy=    -1199.01856657  energy(sigma->0) =    -1199.01856657
 


--------------------------------------------------------------------------------------------------------


    POTLOK:  cpu time    1.9816: real time    1.9863


--------------------------------------------------------------------------------------------------------


 stress matrix after NEB project (eV)
      0.00000      0.00000      0.00000
      0.00000      0.00000      0.00000
      0.00000      0.00000      0.00000
  FORCES: max atom, RMS     1.888883    0.430243
  FORCE total and by dimension    4.593736    1.656079
  Stress total and by dimension    0.000000    0.000000
     LOOP+:  cpu time58094.8469: real time58236.8775
    4ORBIT:  cpu time    0.0000: real time    0.0000
 


 total charge     
 
# of ion       s       p       d       tot
------------------------------------------
    1        1.578   3.721   0.000   5.299
    2        1.576   3.734   0.000   5.310
    3        1.580   3.725   0.000   5.305
    4        1.578   3.720   0.000   5.297
    5        1.577   3.726   0.000   5.303
    6        1.579   3.691   0.000   5.270
    7        1.579   3.733   0.000   5.313
    8        1.579   3.695   0.000   5.274
    9        1.581   3.697   0.000   5.278
   10        1.577   3.723   0.000   5.300
   11        1.579   3.718   0.000   5.298
   12        1.581   3.712   0.000   5.293
   13        1.574   3.741   0.000   5.315
   14        1.578   3.683   0.000   5.262
   15        1.575   3.746   0.000   5.321
   16        1.579   3.664   0.000   5.242
   17        1.579   3.710   0.000   5.289
   18        1.579   3.689   0.000   5.268
   19        1.578   3.732   0.000   5.310
   20        1.581   3.723   0.000   5.304
   21        1.582   3.724   0.000   5.306
   22        1.579   3.725   0.000   5.303
   23        1.582   3.725   0.000   5.307
   24        1.580   3.725   0.000   5.305
   25        1.579   3.727   0.000   5.306
   26        1.583   3.686   0.000   5.269
   27        1.579   3.675   0.000   5.254
   28        1.580   3.727   0.000   5.307
   29        1.580   3.732   0.000   5.312
   30        1.580   3.724   0.000   5.305
   31        1.580   3.733   0.000   5.314
   32        1.584   3.691   0.000   5.275
   33        1.581   3.723   0.000   5.305
   34        1.580   3.725   0.000   5.306
   35        1.581   3.729   0.000   5.310
   36        1.581   3.722   0.000   5.303
   37        1.578   3.735   0.000   5.314
   38        1.579   3.672   0.000   5.251
   39        1.575   3.759   0.000   5.334
   40        1.575   3.744   0.000   5.319
   41        1.576   3.751   0.000   5.327
   42        1.578   3.730   0.000   5.308
   43        1.578   3.743   0.000   5.321
   44        1.578   3.663   0.000   5.241
   45        1.582   3.725   0.000   5.307
   46        1.579   3.729   0.000   5.308
   47        1.575   3.746   0.000   5.321
   48        1.577   3.739   0.000   5.316
   49        1.579   3.721   0.000   5.300
   50        1.574   3.747   0.000   5.321
   51        1.580   3.732   0.000   5.312
   52        1.582   3.714   0.000   5.296
   53        1.579   3.723   0.000   5.302
   54        1.580   3.702   0.000   5.282
   55        1.579   3.730   0.000   5.309
   56        1.578   3.723   0.000   5.301
   57        1.583   3.682   0.000   5.265
   58        1.578   3.719   0.000   5.297
   59        1.581   3.711   0.000   5.292
   60        1.579   3.730   0.000   5.309
   61        1.582   3.684   0.000   5.266
   62        1.573   3.751   0.000   5.324
   63        1.577   3.729   0.000   5.306
   64        1.581   3.712   0.000   5.293
   65        1.576   3.733   0.000   5.308
   66        1.582   3.681   0.000   5.263
   67        1.578   3.716   0.000   5.294
   68        1.581   3.719   0.000   5.300
   69        1.574   3.744   0.000   5.319
   70        1.575   3.749   0.000   5.324
   71        1.580   3.708   0.000   5.288
   72        1.580   3.682   0.000   5.262
   73        1.625   3.515   0.000   5.139
   74        1.645   3.477   0.000   5.122
   75        0.637   0.994   0.000   1.631
   76        0.642   0.996   0.000   1.638
   77        0.644   1.006   0.000   1.650
   78        0.635   0.987   0.000   1.621
   79        0.639   0.997   0.000   1.636
   80        0.643   0.995   0.000   1.639
   81        0.637   0.993   0.000   1.630
   82        0.643   1.000   0.000   1.643
   83        0.636   0.989   0.000   1.625
   84        0.638   0.994   0.000   1.632
   85        0.639   0.998   0.000   1.636
   86        0.640   1.004   0.000   1.644
   87        0.643   0.997   0.000   1.640
   88        0.637   0.990   0.000   1.626
   89        0.639   0.994   0.000   1.633
   90        0.637   0.992   0.000   1.629
   91        0.641   0.997   0.000   1.638
   92        0.639   0.997   0.000   1.637
   93        0.644   1.000   0.000   1.644
   94        0.639   0.998   0.000   1.637
   95        0.637   0.993   0.000   1.631
   96        0.642   0.992   0.000   1.634
   97        0.641   0.993   0.000   1.634
   98        0.637   0.985   0.000   1.621
   99        0.640   1.001   0.000   1.641
  100        0.643   0.996   0.000   1.640
  101        0.641   0.994   0.000   1.635
  102        0.644   0.999   0.000   1.643
  103        0.640   0.995   0.000   1.635
  104        0.639   0.998   0.000   1.637
  105        0.641   0.996   0.000   1.636
  106        0.638   0.992   0.000   1.630
  107        0.636   0.989   0.000   1.625
  108        0.350   0.467   0.000   0.816
  109        0.350   0.469   0.000   0.818
  110        0.349   0.468   0.000   0.817
  111        0.089   0.061   9.257   9.407
  112        0.100   0.075   9.258   9.433
  113        0.121   0.084   9.228   9.433
  114        1.380   2.170   0.000   3.550
--------------------------------------------------
tot        140.799 311.382  27.744 479.925
 


 magnetization (x)
 
# of ion       s       p       d       tot
------------------------------------------
    1        0.000   0.000   0.000   0.000
    2       -0.000  -0.000   0.000  -0.000
    3        0.000   0.000   0.000   0.000
    4       -0.000  -0.000   0.000  -0.000
    5        0.000   0.000   0.000   0.000
    6        0.000  -0.000   0.000  -0.000
    7        0.000   0.000   0.000   0.000
    8        0.000   0.000   0.000   0.000
    9       -0.000   0.000   0.000  -0.000
   10       -0.000   0.000   0.000   0.000
   11       -0.000   0.000   0.000   0.000
   12        0.000   0.000   0.000   0.000
   13       -0.000  -0.000   0.000  -0.000
   14       -0.000  -0.000   0.000  -0.000
   15       -0.000  -0.000   0.000  -0.000
   16       -0.000  -0.000   0.000  -0.000
   17       -0.000  -0.000   0.000  -0.000
   18       -0.000  -0.000   0.000  -0.000
   19        0.000   0.000   0.000   0.000
   20       -0.000  -0.000   0.000  -0.000
   21        0.000   0.000   0.000   0.000
   22       -0.000  -0.000   0.000  -0.000
   23        0.000   0.000   0.000   0.000
   24        0.000  -0.000   0.000  -0.000
   25        0.000  -0.000   0.000  -0.000
   26        0.000   0.000   0.000   0.000
   27        0.000  -0.000   0.000  -0.000
   28        0.000   0.000   0.000   0.000
   29       -0.000  -0.000   0.000  -0.000
   30        0.000   0.000   0.000   0.000
   31       -0.000  -0.000   0.000  -0.000
   32       -0.000  -0.000   0.000  -0.000
   33        0.000  -0.000   0.000  -0.000
   34        0.000  -0.000   0.000  -0.000
   35        0.000  -0.000   0.000  -0.000
   36       -0.000  -0.000   0.000  -0.000
   37        0.000   0.000   0.000   0.000
   38       -0.000  -0.000   0.000  -0.000
   39        0.000   0.000   0.000   0.000
   40       -0.000  -0.000   0.000  -0.000
   41        0.000   0.000   0.000   0.000
   42       -0.000  -0.000   0.000  -0.000
   43       -0.000   0.000   0.000   0.000
   44        0.000   0.000   0.000   0.000
   45       -0.000  -0.000   0.000  -0.000
   46        0.000   0.000   0.000   0.000
   47       -0.000  -0.000   0.000  -0.000
   48       -0.000   0.000   0.000   0.000
   49        0.000  -0.000   0.000  -0.000
   50       -0.000  -0.000   0.000  -0.000
   51       -0.000  -0.000   0.000  -0.000
   52        0.000  -0.000   0.000  -0.000
   53       -0.000  -0.000   0.000  -0.000
   54        0.000  -0.000   0.000  -0.000
   55        0.000   0.000   0.000   0.000
   56       -0.000   0.000   0.000   0.000
   57        0.000   0.000   0.000   0.000
   58        0.000   0.000   0.000   0.000
   59        0.000   0.000   0.000   0.000
   60        0.000   0.000   0.000   0.000
   61        0.000   0.000   0.000   0.000
   62        0.000   0.000   0.000   0.000
   63       -0.000   0.000   0.000   0.000
   64        0.000   0.000   0.000   0.000
   65        0.000   0.000   0.000   0.000
   66       -0.000  -0.000   0.000  -0.000
   67       -0.000  -0.000   0.000  -0.000
   68       -0.000  -0.000   0.000  -0.000
   69       -0.000  -0.000   0.000  -0.000
   70       -0.000  -0.000   0.000  -0.000
   71       -0.000  -0.000   0.000  -0.000
   72        0.000   0.000   0.000   0.000
   73       -0.000  -0.000   0.000  -0.000
   74       -0.000  -0.000   0.000  -0.000
   75       -0.000  -0.000   0.000  -0.000
   76        0.000   0.000   0.000   0.000
   77       -0.000  -0.000   0.000  -0.000
   78        0.000   0.000   0.000   0.000
   79       -0.000  -0.000   0.000  -0.000
   80        0.000   0.000   0.000   0.000
   81        0.000   0.000   0.000   0.000
   82       -0.000  -0.000   0.000  -0.000
   83       -0.000  -0.000   0.000  -0.000
   84        0.000   0.000   0.000   0.000
   85       -0.000  -0.000   0.000  -0.000
   86       -0.000  -0.000   0.000  -0.000
   87       -0.000  -0.000   0.000  -0.000
   88       -0.000  -0.000   0.000  -0.000
   89        0.000  -0.000   0.000  -0.000
   90       -0.000  -0.000   0.000  -0.000
   91       -0.000  -0.000   0.000  -0.000
   92       -0.000  -0.000   0.000  -0.000
   93       -0.000  -0.000   0.000  -0.000
   94       -0.000  -0.000   0.000  -0.000
   95       -0.000  -0.000   0.000  -0.000
   96       -0.000   0.000   0.000   0.000
   97        0.000   0.000   0.000   0.000
   98        0.000   0.000   0.000   0.000
   99        0.000   0.000   0.000   0.000
  100        0.000   0.000   0.000   0.000
  101        0.000   0.000   0.000   0.000
  102        0.000   0.000   0.000   0.000
  103        0.000   0.000   0.000   0.000
  104        0.000   0.000   0.000   0.000
  105       -0.000   0.000   0.000   0.000
  106        0.000   0.000   0.000   0.000
  107        0.000   0.000   0.000   0.000
  108        0.000  -0.000   0.000   0.000
  109       -0.000  -0.000   0.000  -0.000
  110        0.000   0.000   0.000   0.000
  111       -0.000  -0.000   0.000   0.000
  112       -0.000   0.000   0.000   0.000
  113        0.000   0.000   0.000   0.000
  114       -0.000   0.000   0.000   0.000
--------------------------------------------------
tot         -0.000   0.000   0.000   0.000
 

 total amount of memory used by VASP MPI-rank0   230825. kBytes
=======================================================================

   base      :      30000. kBytes
   nonlr-proj:      31994. kBytes
   fftplans  :      69849. kBytes
   grid      :      59474. kBytes
   one-center:        902. kBytes
   HF        :        259. kBytes
   wavefun   :      38347. kBytes
 
  
  
 General timing and accounting informations for this job:
 ========================================================
  
                  Total CPU time used (sec):    58116.566
                            User time (sec):    54099.459
                          System time (sec):     4017.107
                         Elapsed time (sec):    58259.330
  
                   Maximum memory used (kb):      468808.
                   Average memory used (kb):           0.
  
                          Minor page faults:      3162511
                          Major page faults:            6
                 Voluntary context switches:         2277
