>>>  VASP 5.4.4 with BEEF-vdw and vtst
--------------------------------------------------------
>>>  Job information
     SLURM_JOBID=8863198
     SLURM_JOB_NODELIST=cpn-u23-38
     SLURM_NNODES=1
     SLURMTMPDIR=/scratch/8863198
     working directory = /projects/academic/ericwalk/ruthbell/Ads_Ag-SSZ13/H2S-S/vtst
--------------------------------------------------------
>>>  Module information
--------------------------------------------------------
>>>  Running Configuration
NPROCS=16
--------------------------------------------------------
>>>  Job started at Thu Jul  7 10:50:50 EDT 2022
--------------------------------------------------------
 running on   16 total cores
 distrk:  each k-point on   16 cores,    1 groups
 distr:  one band on    4 cores,    4 groups
 using from now: INCAR     
 vasp.5.4.4.18Apr17-6-g9f103f2a35 (build Dec 31 2018 11:41:54) complex          
  
 POSCAR found type information on POSCAR  O  Si Al Ag S  H 
 POSCAR found :  6 types and     114 ions
 scaLAPACK will be used
 LDA part: xc-table for Pade appr. of Perdew
 POSCAR found type information on POSCAR  O  Si Al Ag S  H 
 POSCAR found :  6 types and     114 ions
 POSCAR, INCAR and KPOINTS ok, starting setup
 FFT: planning ...
 WAVECAR not read
 entering main loop
       N       E                     dE             d eps       ncg     rms          rms(c)
DAV:   1     0.434107620365E+04    0.43411E+04   -0.25553E+05  1776   0.102E+03
DAV:   2    -0.419405108248E+03   -0.47605E+04   -0.45795E+04  2088   0.294E+02
DAV:   3    -0.934284668756E+03   -0.51488E+03   -0.51137E+03  2120   0.102E+02
DAV:   4    -0.944556063187E+03   -0.10271E+02   -0.10236E+02  2128   0.157E+01
DAV:   5    -0.944814719692E+03   -0.25866E+00   -0.25831E+00  2152   0.230E+00    0.865E+01
DAV:   6    -0.596682098944E+03    0.34813E+03   -0.71881E+02  1996   0.389E+01    0.281E+01
DAV:   7    -0.686491909114E+03   -0.89810E+02   -0.82835E+01  2056   0.124E+01    0.192E+01
DAV:   8    -0.756450932533E+03   -0.69959E+02   -0.31028E+01  2000   0.799E+00    0.109E+01
DAV:   9    -0.833196977447E+03   -0.76746E+02   -0.58168E+01  2012   0.893E+00    0.488E+00
DAV:  10    -0.846480593543E+03   -0.13284E+02   -0.77583E+00  2104   0.356E+00    0.350E+00
DAV:  11    -0.863333312710E+03   -0.16853E+02   -0.11878E+01  1900   0.402E+00    0.168E+00
DAV:  12    -0.865269493889E+03   -0.19362E+01   -0.10393E+00  2016   0.131E+00    0.925E-01
DAV:  13    -0.866314466882E+03   -0.10450E+01   -0.43939E-01  1888   0.884E-01    0.431E-01
DAV:  14    -0.866482563834E+03   -0.16810E+00   -0.64824E-02  1944   0.350E-01    0.259E-01
DAV:  15    -0.866501830988E+03   -0.19267E-01   -0.15165E-02  2048   0.254E-01    0.140E-01
DAV:  16    -0.866507474955E+03   -0.56440E-02   -0.48100E-03  2056   0.144E-01    0.103E-01
DAV:  17    -0.866513157993E+03   -0.56830E-02   -0.25021E-03  2080   0.111E-01    0.418E-02
DAV:  18    -0.866517055452E+03   -0.38975E-02   -0.13215E-03  2000   0.752E-02    0.473E-02
DAV:  19    -0.866517608867E+03   -0.55341E-03   -0.40462E-04  2032   0.453E-02    0.250E-02
DAV:  20    -0.866518066083E+03   -0.45722E-03   -0.30088E-04  2016   0.378E-02    0.147E-02
DAV:  21    -0.866518455338E+03   -0.38925E-03   -0.12159E-04  2016   0.241E-02    0.143E-02
DAV:  22    -0.866518549968E+03   -0.94631E-04   -0.55508E-05  2040   0.167E-02    0.541E-03
DAV:  23    -0.866518630569E+03   -0.80600E-04   -0.33750E-05  2040   0.121E-02    0.326E-03
DAV:  24    -0.866518685814E+03   -0.55245E-04   -0.14111E-05  2024   0.725E-03    0.297E-03
DAV:  25    -0.866518708637E+03   -0.22823E-04   -0.60030E-06  2088   0.464E-03    0.172E-03
DAV:  26    -0.866518724216E+03   -0.15579E-04   -0.38068E-06  2008   0.344E-03    0.143E-03
DAV:  27    -0.866518728394E+03   -0.41788E-05   -0.12217E-06  2080   0.191E-03    0.130E-03
DAV:  28    -0.866518728883E+03   -0.48854E-06   -0.67643E-07  2112   0.141E-03    0.123E-03
DAV:  29    -0.866518728879E+03    0.39508E-08   -0.39110E-07  2016   0.107E-03    0.122E-03
DAV:  30    -0.866518728930E+03   -0.51252E-07   -0.15080E-07  1968   0.635E-04    0.121E-03
DAV:  31    -0.866518728947E+03   -0.17113E-07   -0.56041E-08  2008   0.379E-04    0.121E-03
DAV:  32    -0.866518728959E+03   -0.11758E-07   -0.13300E-08  1880   0.200E-04    0.120E-03
DAV:  33    -0.866518728970E+03   -0.10652E-07   -0.60464E-09  1752   0.140E-04    0.120E-03
DAV:  34    -0.866518728974E+03   -0.43146E-08   -0.18100E-09  1632   0.876E-05
   1 F= -.86651873E+03 E0= -.86651873E+03  d E =-.866519E+03  mag=    -0.0000
quench:  g(F)=  0.000E+00 g(S)=  0.000E+00 dE (1.order)= 0.000E+00
 bond charge predicted
       N       E                     dE             d eps       ncg     rms          rms(c)
DAV:   1    -0.866518716980E+03    0.11990E-04   -0.84521E-04  1792   0.184E-02    0.835E-03
DAV:   2    -0.866518718822E+03   -0.18416E-05   -0.25037E-05  2016   0.429E-03    0.484E-03
DAV:   3    -0.866518718719E+03    0.10214E-06   -0.71663E-07  2064   0.861E-04    0.177E-03
DAV:   4    -0.866518718766E+03   -0.46937E-07   -0.18574E-07  2048   0.305E-04    0.131E-03
DAV:   5    -0.866518718768E+03   -0.20227E-08   -0.96509E-09  1832   0.141E-04
   2 F= -.86651872E+03 E0= -.86651872E+03  d E =0.102057E-04  mag=    -0.0000
quench:  g(F)=  0.000E+00 g(S)=  0.000E+00 dE (1.order)= 0.000E+00
 bond charge predicted
       N       E                     dE             d eps       ncg     rms          rms(c)
DAV:   1    -0.866518723646E+03   -0.48797E-05   -0.18425E-03  1792   0.295E-02    0.104E-02
DAV:   2    -0.866518728621E+03   -0.49750E-05   -0.61262E-05  2040   0.696E-03    0.539E-03
DAV:   3    -0.866518728642E+03   -0.21479E-07   -0.13047E-06  1992   0.123E-03    0.274E-03
DAV:   4    -0.866518728833E+03   -0.19043E-06   -0.23233E-07  1944   0.485E-04    0.134E-03
DAV:   5    -0.866518728875E+03   -0.42186E-07   -0.30501E-08  1864   0.240E-04    0.122E-03
DAV:   6    -0.866518728886E+03   -0.11030E-07   -0.55290E-09  1624   0.141E-04    0.121E-03
DAV:   7    -0.866518728888E+03   -0.14334E-08   -0.14295E-09  1400   0.793E-05
   3 F= -.86651873E+03 E0= -.86651873E+03  d E =-.101192E-04  mag=    -0.0000
quench:  g(F)=  0.000E+00 g(S)=  0.000E+00 dE (1.order)= 0.000E+00
 bond charge predicted
       N       E                     dE             d eps       ncg     rms          rms(c)
DAV:   1    -0.866518706799E+03    0.22087E-04   -0.17953E-03  1760   0.299E-02    0.114E-02
DAV:   2    -0.866518711330E+03   -0.45307E-05   -0.67372E-05  2032   0.655E-03    0.635E-03
DAV:   3    -0.866518710546E+03    0.78355E-06   -0.12353E-06  2064   0.121E-03    0.306E-03
DAV:   4    -0.866518710114E+03    0.43202E-06   -0.31289E-07  2032   0.543E-04    0.132E-03
DAV:   5    -0.866518710058E+03    0.55545E-07   -0.45495E-08  1816   0.312E-04    0.122E-03
DAV:   6    -0.866518710045E+03    0.13213E-07   -0.94992E-09  1600   0.147E-04    0.121E-03
DAV:   7    -0.866518710046E+03   -0.37107E-09   -0.41181E-09  1568   0.132E-04
   4 F= -.86651871E+03 E0= -.86651871E+03  d E =0.188420E-04  mag=    -0.0000
quench:  g(F)=  0.000E+00 g(S)=  0.000E+00 dE (1.order)= 0.000E+00
 bond charge predicted
       N       E                     dE             d eps       ncg     rms          rms(c)
DAV:   1    -0.866518712537E+03   -0.24920E-05   -0.10575E-03  1744   0.223E-02    0.104E-02
DAV:   2    -0.866518715405E+03   -0.28678E-05   -0.43665E-05  2016   0.474E-03    0.601E-03
DAV:   3    -0.866518715174E+03    0.23079E-06   -0.13719E-06  2112   0.105E-03    0.260E-03
DAV:   4    -0.866518715210E+03   -0.36263E-07   -0.23740E-07  1960   0.467E-04    0.138E-03
DAV:   5    -0.866518715228E+03   -0.17913E-07   -0.38229E-08  1768   0.361E-04    0.121E-03
DAV:   6    -0.866518715231E+03   -0.29322E-08   -0.44427E-08  1664   0.405E-04
   5 F= -.86651872E+03 E0= -.86651872E+03  d E =-.518574E-05  mag=    -0.0000
quench:  g(F)=  0.000E+00 g(S)=  0.000E+00 dE (1.order)= 0.000E+00
 bond charge predicted
       N       E                     dE             d eps       ncg     rms          rms(c)
DAV:   1    -0.866518734160E+03   -0.18931E-04   -0.58280E-04  1744   0.156E-02    0.638E-03
DAV:   2    -0.866518734700E+03   -0.54063E-06   -0.51363E-06  2008   0.167E-03    0.416E-03
DAV:   3    -0.866518734967E+03   -0.26639E-06   -0.62219E-07  1960   0.972E-04    0.136E-03
DAV:   4    -0.866518734933E+03    0.33993E-07   -0.19789E-07  1760   0.708E-04    0.127E-03
DAV:   5    -0.866518735000E+03   -0.67259E-07   -0.17908E-07  1744   0.779E-04    0.121E-03
DAV:   6    -0.866518734927E+03    0.72556E-07   -0.16725E-07  1712   0.764E-04    0.121E-03
DAV:   7    -0.866518734912E+03    0.15578E-07   -0.32347E-08  1648   0.335E-04    0.120E-03
DAV:   8    -0.866518734909E+03    0.26412E-08   -0.38298E-09  1592   0.124E-04
   6 F= -.86651873E+03 E0= -.86651873E+03  d E =-.196778E-04  mag=    -0.0000
quench:  g(F)=  0.000E+00 g(S)=  0.000E+00 dE (1.order)= 0.000E+00
 bond charge predicted
       N       E                     dE             d eps       ncg     rms          rms(c)
DAV:   1    -0.866518715554E+03    0.19357E-04   -0.58553E-04  1728   0.154E-02    0.667E-03
DAV:   2    -0.866518716255E+03   -0.70087E-06   -0.67748E-06  2128   0.174E-03    0.449E-03
DAV:   3    -0.866518716537E+03   -0.28179E-06   -0.66153E-07  2072   0.860E-04    0.146E-03
DAV:   4    -0.866518716540E+03   -0.25830E-08   -0.12386E-07  1920   0.352E-04    0.128E-03
DAV:   5    -0.866518716520E+03    0.19936E-07   -0.25081E-08  1808   0.230E-04    0.121E-03
DAV:   6    -0.866518716520E+03   -0.21100E-09   -0.86887E-09  1616   0.160E-04
   7 F= -.86651872E+03 E0= -.86651872E+03  d E =0.183892E-04  mag=    -0.0000
quench:  g(F)=  0.000E+00 g(S)=  0.000E+00 dE (1.order)= 0.000E+00
 bond charge predicted
       N       E                     dE             d eps       ncg     rms          rms(c)
DAV:   1    -0.866518719889E+03   -0.33693E-05   -0.58076E-04  1744   0.161E-02    0.589E-03
DAV:   2    -0.866518720294E+03   -0.40492E-06   -0.63094E-06  2064   0.164E-03    0.393E-03
DAV:   3    -0.866518720348E+03   -0.53777E-07   -0.73983E-07  1904   0.831E-04    0.145E-03
DAV:   4    -0.866518720357E+03   -0.87457E-08   -0.19069E-07  1808   0.500E-04    0.130E-03
DAV:   5    -0.866518720399E+03   -0.42783E-07   -0.11278E-07  1728   0.543E-04    0.121E-03
DAV:   6    -0.866518720375E+03    0.24411E-07   -0.14180E-07  1712   0.604E-04    0.120E-03
DAV:   7    -0.866518720365E+03    0.98371E-08   -0.65335E-08  1608   0.406E-04
   8 F= -.86651872E+03 E0= -.86651872E+03  d E =-.384510E-05  mag=     0.0000
quench:  g(F)=  0.000E+00 g(S)=  0.000E+00 dE (1.order)= 0.000E+00
 bond charge predicted
       N       E                     dE             d eps       ncg     rms          rms(c)
DAV:   1    -0.866518728056E+03   -0.76807E-05   -0.58653E-04  1744   0.157E-02    0.626E-03
DAV:   2    -0.866518728445E+03   -0.38990E-06   -0.55598E-06  1968   0.169E-03    0.417E-03
DAV:   3    -0.866518728275E+03    0.17056E-06   -0.50162E-07  1984   0.794E-04    0.138E-03
DAV:   4    -0.866518728276E+03   -0.14043E-08   -0.98888E-08  1840   0.400E-04
   9 F= -.86651873E+03 E0= -.86651873E+03  d E =-.791124E-05  mag=    -0.0000
quench:  g(F)=  0.000E+00 g(S)=  0.000E+00 dE (1.order)= 0.000E+00
 bond charge predicted
       N       E                     dE             d eps       ncg     rms          rms(c)
DAV:   1    -0.866518715800E+03    0.12475E-04   -0.59711E-04  1760   0.158E-02    0.736E-03
DAV:   2    -0.866518716630E+03   -0.82958E-06   -0.96127E-06  1984   0.208E-03    0.516E-03
DAV:   3    -0.866518716960E+03   -0.33060E-06   -0.12164E-06  1952   0.119E-03    0.159E-03
DAV:   4    -0.866518716952E+03    0.78435E-08   -0.30232E-07  1808   0.699E-04    0.132E-03
DAV:   5    -0.866518716978E+03   -0.26135E-07   -0.15945E-07  1744   0.629E-04    0.121E-03
DAV:   6    -0.866518716951E+03    0.27503E-07   -0.17026E-07  1728   0.643E-04    0.121E-03
DAV:   7    -0.866518716955E+03   -0.37544E-08   -0.12201E-07  1712   0.539E-04    0.120E-03
DAV:   8    -0.866518716926E+03    0.28638E-07   -0.44264E-08  1600   0.327E-04    0.120E-03
DAV:   9    -0.866518716925E+03    0.95315E-09   -0.27146E-09  1520   0.877E-05
  10 F= -.86651872E+03 E0= -.86651872E+03  d E =0.113512E-04  mag=     0.0000
quench:  g(F)=  0.000E+00 g(S)=  0.000E+00 dE (1.order)= 0.000E+00
--------------------------------------------------------
>>>  Job finished at Thu Jul  7 11:20:32 EDT 2022
