 vasp.5.4.4.18Apr17-6-g9f103f2a35 (build Dec 31 2018 11:41:54) complex          
  
 executed on             LinuxIFC date 2022.07.07  10:50:51
 running on   16 total cores
 distrk:  each k-point on   16 cores,    1 groups
 distr:  one band on NCORES_PER_BAND=   4 cores,    4 groups


--------------------------------------------------------------------------------------------------------


 INCAR:
 POTCAR:   PAW_PBE O 08Apr2002                    
 POTCAR:   PAW_PBE Si 05Jan2001                   
 POTCAR:   PAW_PBE Al 04Jan2001                   
 POTCAR:   PAW_PBE Ag 06Sep2000                   
 POTCAR:    PAW_PBE S 17Jan2003                   
 POTCAR:   PAW_PBE H 15Jun2001                    
 POTCAR:   PAW_PBE O 08Apr2002                    
   VRHFIN =O: s2p4                                                              
   LEXCH  = PE                                                                  
   EATOM  =   432.3788 eV,   31.7789 Ry                                         
                                                                                
   TITEL  = PAW_PBE O 08Apr2002                                                 
   LULTRA =        F    use ultrasoft PP ?                                      
   IUNSCR =        0    unscreen: 0-lin 1-nonlin 2-no                           
   RPACOR =     .000    partial core radius                                     
   POMASS =   16.000; ZVAL   =    6.000    mass and valenz                      
   RCORE  =    1.520    outmost cutoff radius                                   
   RWIGS  =    1.550; RWIGS  =     .820    wigner-seitz radius (au A)           
   ENMAX  =  400.000; ENMIN  =  300.000 eV                                      
   ICORE  =        2    local potential                                         
   LCOR   =        T    correct aug charges                                     
   LPAW   =        T    paw PP                                                  
   EAUG   =  605.392                                                            
   DEXC   =     .000                                                            
   RMAX   =    2.264    core radius for proj-oper                               
   RAUG   =    1.300    factor for augmentation sphere                          
   RDEP   =    1.550    radius for radial grids                                 
   QCUT   =   -5.520; QGAM   =   11.041    optimization parameters              
                                                                                
   Description                                                                  
     l     E      TYP  RCUT    TYP  RCUT                                        
     0   .000     23  1.200                                                     
     0  -.700     23  1.200                                                     
     1   .000     23  1.520                                                     
     1   .600     23  1.520                                                     
     2   .000      7  1.500                                                     
  local pseudopotential read in
  atomic valenz-charges read in
  non local Contribution for L=           0  read in
    real space projection operators read in
  non local Contribution for L=           0  read in
    real space projection operators read in
  non local Contribution for L=           1  read in
    real space projection operators read in
  non local Contribution for L=           1  read in
    real space projection operators read in
    PAW grid and wavefunctions read in
 
   number of l-projection  operators is LMAX  =           4
   number of lm-projection operators is LMMAX =           8
 
 POTCAR:   PAW_PBE Si 05Jan2001                   
   VRHFIN =Si: s2p2                                                             
   LEXCH  = PE                                                                  
   EATOM  =   103.0669 eV,    7.5752 Ry                                         
                                                                                
   TITEL  = PAW_PBE Si 05Jan2001                                                
   LULTRA =        F    use ultrasoft PP ?                                      
   IUNSCR =        1    unscreen: 0-lin 1-nonlin 2-no                           
   RPACOR =    1.500    partial core radius                                     
   POMASS =   28.085; ZVAL   =    4.000    mass and valenz                      
   RCORE  =    1.900    outmost cutoff radius                                   
   RWIGS  =    2.480; RWIGS  =    1.312    wigner-seitz radius (au A)           
   ENMAX  =  245.345; ENMIN  =  184.009 eV                                      
   ICORE  =        2    local potential                                         
   LCOR   =        T    correct aug charges                                     
   LPAW   =        T    paw PP                                                  
   EAUG   =  322.069                                                            
   DEXC   =    -.007                                                            
   RMAX   =    2.944    core radius for proj-oper                               
   RAUG   =    1.300    factor for augmentation sphere                          
   RDEP   =    1.993    radius for radial grids                                 
   QCUT   =   -4.246; QGAM   =    8.493    optimization parameters              
                                                                                
   Description                                                                  
     l     E      TYP  RCUT    TYP  RCUT                                        
     0   .000     23  1.900                                                     
     0   .000     23  1.900                                                     
     1   .000     23  1.900                                                     
     1   .000     23  1.900                                                     
     2   .000      7  1.900                                                     
  local pseudopotential read in
  partial core-charges read in
  atomic valenz-charges read in
  non local Contribution for L=           0  read in
    real space projection operators read in
  non local Contribution for L=           0  read in
    real space projection operators read in
  non local Contribution for L=           1  read in
    real space projection operators read in
  non local Contribution for L=           1  read in
    real space projection operators read in
    PAW grid and wavefunctions read in
 
   number of l-projection  operators is LMAX  =           4
   number of lm-projection operators is LMMAX =           8
 
 POTCAR:   PAW_PBE Al 04Jan2001                   
   VRHFIN =Al: s2p1                                                             
   LEXCH  = PE                                                                  
   EATOM  =    53.5387 eV,    3.9350 Ry                                         
                                                                                
   TITEL  = PAW_PBE Al 04Jan2001                                                
   LULTRA =        F    use ultrasoft PP ?                                      
   IUNSCR =        1    unscreen: 0-lin 1-nonlin 2-no                           
   RPACOR =    1.500    partial core radius                                     
   POMASS =   26.982; ZVAL   =    3.000    mass and valenz                      
   RCORE  =    1.900    outmost cutoff radius                                   
   RWIGS  =    2.650; RWIGS  =    1.402    wigner-seitz radius (au A)           
   ENMAX  =  240.300; ENMIN  =  180.225 eV                                      
   ICORE  =        2    local potential                                         
   LCOR   =        T    correct aug charges                                     
   LPAW   =        T    paw PP                                                  
   EAUG   =  291.052                                                            
   DEXC   =    -.041                                                            
   RMAX   =    2.974    core radius for proj-oper                               
   RAUG   =    1.300    factor for augmentation sphere                          
   RDEP   =    1.966    radius for radial grids                                 
   QCUT   =   -4.203; QGAM   =    8.405    optimization parameters              
                                                                                
   Description                                                                  
     l     E      TYP  RCUT    TYP  RCUT                                        
     0   .000     23  1.900                                                     
     0   .000     23  1.900                                                     
     1   .000     23  1.900                                                     
     1  1.000     23  1.900                                                     
     2   .000      7  1.900                                                     
  local pseudopotential read in
  partial core-charges read in
  atomic valenz-charges read in
  non local Contribution for L=           0  read in
    real space projection operators read in
  non local Contribution for L=           0  read in
    real space projection operators read in
  non local Contribution for L=           1  read in
    real space projection operators read in
  non local Contribution for L=           1  read in
    real space projection operators read in
    PAW grid and wavefunctions read in
 
   number of l-projection  operators is LMAX  =           4
   number of lm-projection operators is LMMAX =           8
 
 POTCAR:   PAW_PBE Ag 06Sep2000                   
   VRHFIN =Ag : s1 d10                                                          
   LEXCH  = PE                                                                  
   EATOM  =  1037.4134 eV,   76.2477 Ry                                         
                                                                                
   TITEL  = PAW_PBE Ag 06Sep2000                                                
   LULTRA =        F    use ultrasoft PP ?                                      
   IUNSCR =        1    unscreen: 0-lin 1-nonlin 2-no                           
   RPACOR =    2.000    partial core radius                                     
   POMASS =  107.868; ZVAL   =   11.000    mass and valenz                      
   RCORE  =    2.400    outmost cutoff radius                                   
   RWIGS  =    2.840; RWIGS  =    1.503    wigner-seitz radius (au A)           
   ENMAX  =  249.846; ENMIN  =  187.385 eV                                      
   RCLOC  =    1.962    cutoff for local pot                                    
   LCOR   =        T    correct aug charges                                     
   LPAW   =        T    paw PP                                                  
   EAUG   =  412.496                                                            
   DEXC   =    -.047                                                            
   RMAX   =    2.917    core radius for proj-oper                               
   RAUG   =    1.300    factor for augmentation sphere                          
   RDEP   =    2.416    radius for radial grids                                 
   QCUT   =   -4.285; QGAM   =    8.570    optimization parameters              
                                                                                
   Description                                                                  
     l     E      TYP  RCUT    TYP  RCUT                                        
     2   .000     23  2.400                                                     
     2   .000     23  2.400                                                     
     0   .000     23  2.400                                                     
     0   .000     23  2.400                                                     
     1  -.200     23  2.400                                                     
     1  1.500     23  2.400                                                     
     3   .000      7   .000                                                     
  local pseudopotential read in
  partial core-charges read in
  atomic valenz-charges read in
  non local Contribution for L=           2  read in
    real space projection operators read in
  non local Contribution for L=           2  read in
    real space projection operators read in
  non local Contribution for L=           0  read in
    real space projection operators read in
  non local Contribution for L=           0  read in
    real space projection operators read in
  non local Contribution for L=           1  read in
    real space projection operators read in
  non local Contribution for L=           1  read in
    real space projection operators read in
    PAW grid and wavefunctions read in
 
   number of l-projection  operators is LMAX  =           6
   number of lm-projection operators is LMMAX =          18
 
 POTCAR:    PAW_PBE S 17Jan2003                   
   VRHFIN =S : s2p4                                                             
   LEXCH  = PE                                                                  
   EATOM  =   276.8230 eV,   20.3459 Ry                                         
                                                                                
   TITEL  = PAW_PBE S 17Jan2003                                                 
   LULTRA =        F    use ultrasoft PP ?                                      
   IUNSCR =        1    unscreen: 0-lin 1-nonlin 2-no                           
   RPACOR =    1.500    partial core radius                                     
   POMASS =   32.066; ZVAL   =    6.000    mass and valenz                      
   RCORE  =    1.900    outmost cutoff radius                                   
   RWIGS  =    2.200; RWIGS  =    1.164    wigner-seitz radius (au A)           
   ENMAX  =  280.000; ENMIN  =  194.016 eV                                      
   ICORE  =        2    local potential                                         
   LCOR   =        T    correct aug charges                                     
   LPAW   =        T    paw PP                                                  
   EAUG   =  335.092                                                            
   DEXC   =     .000                                                            
   RMAX   =    2.867    core radius for proj-oper                               
   RAUG   =    1.300    factor for augmentation sphere                          
   RDEP   =    1.954    radius for radial grids                                 
   QCUT   =   -4.360; QGAM   =    8.721    optimization parameters              
                                                                                
   Description                                                                  
     l     E      TYP  RCUT    TYP  RCUT                                        
     0   .000     23  1.900                                                     
     0   .000     23  1.900                                                     
     1   .000     23  1.900                                                     
     1   .000     23  1.900                                                     
     2   .000     23  1.900                                                     
  local pseudopotential read in
  partial core-charges read in
  atomic valenz-charges read in
  non local Contribution for L=           0  read in
    real space projection operators read in
  non local Contribution for L=           0  read in
    real space projection operators read in
  non local Contribution for L=           1  read in
    real space projection operators read in
  non local Contribution for L=           1  read in
    real space projection operators read in
    PAW grid and wavefunctions read in
 
   number of l-projection  operators is LMAX  =           4
   number of lm-projection operators is LMMAX =           8
 
 POTCAR:   PAW_PBE H 15Jun2001                    
   VRHFIN =H: ultrasoft test                                                    
   LEXCH  = PE                                                                  
   EATOM  =    12.4884 eV,     .9179 Ry                                         
                                                                                
   TITEL  = PAW_PBE H 15Jun2001                                                 
   LULTRA =        F    use ultrasoft PP ?                                      
   IUNSCR =        0    unscreen: 0-lin 1-nonlin 2-no                           
   RPACOR =     .000    partial core radius                                     
   POMASS =    1.000; ZVAL   =    1.000    mass and valenz                      
   RCORE  =    1.100    outmost cutoff radius                                   
   RWIGS  =     .700; RWIGS  =     .370    wigner-seitz radius (au A)           
   ENMAX  =  250.000; ENMIN  =  200.000 eV                                      
   RCLOC  =     .701    cutoff for local pot                                    
   LCOR   =        T    correct aug charges                                     
   LPAW   =        T    paw PP                                                  
   EAUG   =  400.000                                                            
   RMAX   =    2.174    core radius for proj-oper                               
   RAUG   =    1.200    factor for augmentation sphere                          
   RDEP   =    1.112    radius for radial grids                                 
   QCUT   =   -5.749; QGAM   =   11.498    optimization parameters              
                                                                                
   Description                                                                  
     l     E      TYP  RCUT    TYP  RCUT                                        
     0   .000     23  1.100                                                     
     0   .500     23  1.100                                                     
     1  -.300     23  1.100                                                     
  local pseudopotential read in
  atomic valenz-charges read in
  non local Contribution for L=           0  read in
    real space projection operators read in
  non local Contribution for L=           0  read in
    real space projection operators read in
  non local Contribution for L=           1  read in
    real space projection operators read in
    PAW grid and wavefunctions read in
 
   number of l-projection  operators is LMAX  =           3
   number of lm-projection operators is LMMAX =           5
 
 Optimization of the real space projectors (new method)

 maximal supplied QI-value         = 24.76
 optimisation between [QCUT,QGAM] = [ 10.15, 20.30] = [ 28.85,115.39] Ry 
 Optimized for a Real-space Cutoff    1.51 Angstroem

   l    n(q)    QCUT    max X(q) W(low)/X(q) W(high)/X(q)  e(spline) 
   0      9    10.150     4.192    0.32E-04    0.13E-04    0.13E-06
   0      9    10.150     8.473    0.18E-03    0.20E-03    0.43E-06
   1      9    10.150     2.474    0.32E-04    0.33E-04    0.64E-07
   1      9    10.150     3.912    0.13E-03    0.16E-03    0.33E-06
 Optimization of the real space projectors (new method)

 maximal supplied QI-value         = 19.84
 optimisation between [QCUT,QGAM] = [ 10.12, 20.44] = [ 28.68,116.96] Ry 
 Optimized for a Real-space Cutoff    1.38 Angstroem

   l    n(q)    QCUT    max X(q) W(low)/X(q) W(high)/X(q)  e(spline) 
   0      8    10.119     8.708    0.16E-04    0.67E-05    0.60E-08
   0      8    10.119   106.241    0.56E-04    0.11E-03    0.54E-07
   1      8    10.119     5.901    0.16E-04    0.16E-05    0.22E-07
   1      8    10.119    73.241    0.22E-03    0.17E-03    0.18E-06
 Optimization of the real space projectors (new method)

 maximal supplied QI-value         = 19.84
 optimisation between [QCUT,QGAM] = [ 10.12, 20.44] = [ 28.68,116.96] Ry 
 Optimized for a Real-space Cutoff    1.26 Angstroem

   l    n(q)    QCUT    max X(q) W(low)/X(q) W(high)/X(q)  e(spline) 
   0      8    10.119    13.410    0.28E-04    0.17E-04    0.51E-08
   0      8    10.119   140.052    0.10E-03    0.16E-03    0.42E-07
   1      7    10.119     9.624    0.38E-04    0.42E-05    0.15E-07
   1      7    10.119    53.353    0.23E-03    0.17E-03    0.13E-06
 Optimization of the real space projectors (new method)

 maximal supplied QI-value         = 15.68
 optimisation between [QCUT,QGAM] = [ 10.20, 20.39] = [ 29.11,116.42] Ry 
 Optimized for a Real-space Cutoff    1.51 Angstroem

   l    n(q)    QCUT    max X(q) W(low)/X(q) W(high)/X(q)  e(spline) 
   2      8    10.195     3.831    0.11E-04    0.20E-04    0.48E-07
   2      8    10.195    20.184    0.23E-03    0.42E-03    0.20E-06
   0      9    10.195    16.770    0.13E-04    0.90E-05    0.63E-08
   0      9    10.195    80.708    0.19E-03    0.15E-03    0.44E-07
   1      9    10.195     6.696    0.12E-04    0.45E-04    0.30E-07
   1      9    10.195     8.973    0.12E-03    0.15E-03    0.13E-06
 Optimization of the real space projectors (new method)

 maximal supplied QI-value         = 19.84
 optimisation between [QCUT,QGAM] = [ 10.12, 20.44] = [ 28.68,116.96] Ry 
 Optimized for a Real-space Cutoff    1.42 Angstroem

   l    n(q)    QCUT    max X(q) W(low)/X(q) W(high)/X(q)  e(spline) 
   0      9    10.119     5.487    0.15E-04    0.47E-05    0.66E-08
   0      9    10.119    85.627    0.51E-04    0.92E-04    0.63E-07
   1      8    10.119     3.530    0.37E-05    0.76E-05    0.28E-07
   1      8    10.119    42.714    0.16E-03    0.16E-03    0.23E-06
 Optimization of the real space projectors (new method)

 maximal supplied QI-value         = 34.20
 optimisation between [QCUT,QGAM] = [  9.92, 20.18] = [ 27.55,114.04] Ry 
 Optimized for a Real-space Cutoff    1.34 Angstroem

   l    n(q)    QCUT    max X(q) W(low)/X(q) W(high)/X(q)  e(spline) 
   0      8     9.919     4.436    0.31E-04    0.59E-04    0.66E-07
   0      8     9.919    16.131    0.16E-03    0.20E-03    0.35E-06
   1      8     9.919     4.654    0.19E-03    0.46E-03    0.40E-06
 PAW_PBE O 08Apr2002                    :
 energy of atom  1       EATOM= -432.3788
 kinetic energy error for atom=    0.1156 (will be added to EATOM!!)
 PAW_PBE Si 05Jan2001                   :
 energy of atom  2       EATOM= -103.0669
 kinetic energy error for atom=    0.0012 (will be added to EATOM!!)
 PAW_PBE Al 04Jan2001                   :
 energy of atom  3       EATOM=  -53.5387
 kinetic energy error for atom=    0.0005 (will be added to EATOM!!)
 PAW_PBE Ag 06Sep2000                   :
 energy of atom  4       EATOM=-1037.4134
 kinetic energy error for atom=    0.0091 (will be added to EATOM!!)
  PAW_PBE S 17Jan2003                   :
 energy of atom  5       EATOM= -276.8230
 kinetic energy error for atom=    0.0046 (will be added to EATOM!!)
 PAW_PBE H 15Jun2001                    :
 energy of atom  6       EATOM=  -12.4884
 kinetic energy error for atom=    0.0098 (will be added to EATOM!!)
 
 
 POSCAR: O  C                                    
  positions in direct lattice
  velocities in cartesian coordinates
 exchange correlation table for  LEXCH =        8
   RHO(1)=    0.500       N(1)  =     2000
   RHO(2)=  100.500       N(2)  =     4000

 VTST: version 3.2, (02/03/18)

 CHAIN: initializing optimizer
 
 OPT: Using VASP Quick-Min optimizer
 CHAIN: Read ICHAIN            1
 
 POSCAR: O  C                                    
  positions in direct lattice
  velocities in cartesian coordinates
 CHAIN: Running the Dynamical Matrix
 


--------------------------------------------------------------------------------------------------------


 ion  position               nearest neighbor table
   1  0.899  0.099  0.119-  73 1.63  80 1.63
   2  0.101  0.887  0.881-  79 1.62  74 1.63
   3  0.892  0.792  0.126-  83 1.61  75 1.63
   4  0.095  0.198  0.868-  76 1.63  82 1.63
   5  0.196  0.105  0.118-  77 1.63  81 1.63
   6  0.802  0.903  0.880-  78 1.59 106 1.73
   7  0.552  0.426  0.458-  84 1.62  90 1.63
   8  0.763  0.236  0.220-  89 1.59 107 1.73
   9  0.567  0.143  0.472-  94 1.65  85 1.65
  10  0.766  0.538  0.205-  93 1.63  86 1.63
  11  0.864  0.425  0.466-  92 1.63  87 1.64
  12  0.464  0.237  0.185-  88 1.63  91 1.64
  13  0.232  0.775  0.774- 102 1.61  95 1.64
  14  0.424  0.569  0.525-  96 1.66 101 1.67 110 2.55
  15  0.229  0.446  0.772-  97 1.61 105 1.62
  16  0.427  0.850  0.533-  98 1.63 108 1.79 110 2.27
  17  0.530  0.757  0.806-  99 1.63 104 1.64
  18  0.124  0.560  0.533- 103 1.65 100 1.68 110 2.44
  19  0.977  0.317  0.163-  73 1.61  89 1.63
  20  0.023  0.669  0.843- 102 1.61  74 1.63
  21  0.678  0.674  0.177-  93 1.61  75 1.63
  22  0.313  0.315  0.820- 105 1.62  76 1.63
  23  0.318  0.016  0.178-  77 1.61  91 1.63
  24  0.664  0.980  0.828- 104 1.62  78 1.63
  25  0.321  0.984  0.839-  79 1.62  95 1.63
  26  0.678  0.007  0.163-  80 1.60 107 1.74 109 2.52
  27  0.668  0.671  0.816-  99 1.61 106 1.77 111 2.28
  28  0.332  0.325  0.159-  81 1.62  88 1.62
  29  0.015  0.336  0.832-  97 1.61  82 1.62
  30  0.987  0.673  0.178-  86 1.62  83 1.62
  31  0.646  0.641  0.506- 101 1.61  84 1.62
  32  0.343  0.993  0.476-  85 1.59 108 1.71
  33  0.995  0.337  0.499- 103 1.61  87 1.63
  34  0.334  0.349  0.483-  96 1.61  90 1.63
  35  0.985  0.642  0.507- 100 1.62  92 1.62
  36  0.648  0.007  0.516-  98 1.61  94 1.64
  37  0.118  0.245  0.130-  81 1.61  73 1.62
  38  0.882  0.742  0.861-  74 1.61 106 1.76 111 2.49
  39  0.762  0.880  0.117-  80 1.60  75 1.61
  40  0.226  0.107  0.872-  76 1.61  79 1.62
  41  0.110  0.884  0.132-  77 1.61  83 1.61
  42  0.875  0.122  0.862-  82 1.61  78 1.63
  43  0.771  0.551  0.475-  84 1.62  92 1.62
  44  0.536  0.088  0.176-  91 1.62 107 1.79 109 2.32
  45  0.414  0.209  0.469-  90 1.60  85 1.64
  46  0.904  0.455  0.198-  86 1.61  89 1.63
  47  0.784  0.206  0.455-  87 1.60  94 1.63
  48  0.546  0.457  0.199-  88 1.61  93 1.62
  49  0.448  0.896  0.808- 104 1.62  95 1.64
  50  0.209  0.428  0.545-  96 1.62 103 1.62
  51  0.123  0.555  0.804-  97 1.61 102 1.62
  52  0.578  0.787  0.522- 101 1.61  98 1.64
  53  0.447  0.535  0.802- 105 1.62  99 1.63
  54  0.201  0.777  0.548- 100 1.58 108 1.74
  55  0.998  0.261  0.996-  82 1.62  73 1.63
  56  0.996  0.728  0.006-  74 1.63  83 1.63
  57  0.726  0.714  0.002-  75 1.60 106 1.73
  58  0.256  0.266  0.992-  76 1.63  81 1.63
  59  0.265  0.999  0.005-  79 1.63  77 1.64
  60  0.666  0.589  0.337-  84 1.61  93 1.63
  61  0.631  0.051  0.342-  94 1.60 107 1.72
  62  0.440  0.109  0.326-  91 1.61  85 1.63
  63  0.913  0.583  0.338-  92 1.61  86 1.63
  64  0.938  0.346  0.332-  87 1.62  89 1.64
  65  0.403  0.322  0.324-  90 1.62  88 1.63
  66  0.359  0.952  0.668-  95 1.59 108 1.74
  67  0.355  0.409  0.656-  96 1.62 105 1.64
  68  0.056  0.409  0.666- 103 1.62  97 1.63
  69  0.575  0.897  0.669- 104 1.61  98 1.62
  70  0.566  0.659  0.663- 101 1.61  99 1.63
  71  0.052  0.636  0.672- 100 1.64 102 1.64
  72  0.731  0.008  0.995-  78 1.66  80 1.67 109 2.51
  73  0.996  0.230  0.103-  19 1.61  37 1.62  55 1.63   1 1.63  89 3.10  81 3.10  82 3.13  80 3.13

  74  1.000  0.758  0.899-  38 1.61  56 1.63  20 1.63   2 1.63 102 3.07  83 3.11 106 3.17
  75  0.764  0.764  0.102-  57 1.60  39 1.61  21 1.63   3 1.63  93 3.01 106 3.08  83 3.13
  76  0.222  0.221  0.889-  40 1.61  58 1.63   4 1.63  22 1.63 105 3.06  81 3.11  82 3.13
  77  0.222  0.002  0.108-  41 1.61  23 1.61   5 1.63  59 1.64  91 3.05  79 3.08  83 3.14
  78  0.770  1.000  0.891-   6 1.59  42 1.63  24 1.63  72 1.66 104 3.07  82 3.10  80 3.11 106 3.22

  79  0.227  0.993  0.899-  25 1.62  40 1.62   2 1.62  59 1.63  95 3.08  77 3.08
  80  0.769  0.999  0.101-  26 1.60  39 1.60   1 1.63  72 1.67  78 3.11  73 3.13 109 3.17 107 3.17

  81  0.226  0.235  0.099-  37 1.61  28 1.62   5 1.63  58 1.63  88 3.05  73 3.10  76 3.11
  82  0.996  0.228  0.891-  42 1.61  55 1.62  29 1.62   4 1.63  97 3.05  78 3.10  73 3.13  76 3.13

  83  0.995  0.769  0.109-   3 1.61  41 1.61  30 1.62  56 1.63  86 3.03  74 3.11  75 3.13  77 3.14

  84  0.658  0.551  0.442-  60 1.61  43 1.62   7 1.62  31 1.62 101 3.07  92 3.10  90 3.14  93 3.14

  85  0.439  0.110  0.436-  32 1.59  62 1.63  45 1.64   9 1.65  94 3.02  90 3.04 108 3.08
  86  0.892  0.561  0.230-  46 1.61  30 1.62  10 1.63  63 1.63  83 3.03  89 3.10  93 3.13
  87  0.893  0.327  0.436-  47 1.60  64 1.62  33 1.63  11 1.64 103 3.02  89 3.07  92 3.12
  88  0.437  0.335  0.217-  48 1.61  28 1.62  12 1.63  65 1.63  81 3.05  91 3.06  93 3.13
  89  0.891  0.335  0.228-   8 1.59  19 1.63  46 1.63  64 1.64  87 3.07  86 3.10  73 3.10 107 3.23

  90  0.426  0.325  0.432-  45 1.60  65 1.62   7 1.63  34 1.63  96 3.04  85 3.04  84 3.14
  91  0.440  0.112  0.217-  62 1.61  44 1.62  23 1.63  12 1.64  77 3.05  88 3.06 107 3.07
  92  0.884  0.550  0.444-  63 1.61  35 1.62  43 1.62  11 1.63 100 3.05  84 3.10  87 3.12
  93  0.665  0.564  0.229-  21 1.61  48 1.62  10 1.63  60 1.63  75 3.01  86 3.13  88 3.13  84 3.14

  94  0.656  0.101  0.443-  61 1.60  47 1.63  36 1.64   9 1.65  85 3.02  98 3.05 107 3.12
  95  0.340  0.903  0.769-  66 1.59  25 1.63  13 1.64  49 1.64 104 3.08  79 3.08 108 3.11
  96  0.331  0.437  0.554-  34 1.61  50 1.62  67 1.62  14 1.66  90 3.04 105 3.09 101 3.10
  97  0.106  0.436  0.769-  29 1.61  51 1.61  15 1.61  68 1.63  82 3.05 102 3.07 103 3.07
  98  0.557  0.888  0.560-  36 1.61  69 1.62  16 1.63  52 1.64 101 3.04  94 3.05 108 3.17 110 3.33

  99  0.553  0.657  0.773-  27 1.61  70 1.63  53 1.63  17 1.63 105 3.07 104 3.08 106 3.14
 100  0.092  0.659  0.566-  54 1.58  35 1.62  71 1.64  18 1.68  92 3.05 102 3.07 103 3.12 110 3.27

 101  0.555  0.665  0.555-  70 1.61  31 1.61  52 1.61  14 1.67  98 3.04  84 3.07  96 3.10
 102  0.110  0.662  0.773-  13 1.61  20 1.61  51 1.62  71 1.64  97 3.07  74 3.07 100 3.07
 103  0.094  0.431  0.561-  33 1.61  50 1.62  68 1.62  18 1.65  87 3.02  97 3.07 100 3.12
 104  0.554  0.882  0.776-  69 1.61  24 1.62  49 1.62  17 1.64  78 3.07  95 3.08  99 3.08
 105  0.336  0.426  0.763-  22 1.62  15 1.62  53 1.62  67 1.64  76 3.06  99 3.07  96 3.09
 106  0.771  0.764  0.894-  57 1.73   6 1.73  38 1.76  27 1.77  75 3.08 111 3.10  99 3.14  74 3.17
                            78 3.22
 107  0.656  0.097  0.232-  61 1.72   8 1.73  26 1.74  44 1.79  91 3.07 109 3.10  94 3.12  80 3.17
                            89 3.23
 108  0.331  0.899  0.558-  32 1.71  54 1.74  66 1.74  16 1.79  85 3.08  95 3.11  98 3.17 110 3.25

 109  0.561  0.022  0.038-  44 2.32  72 2.51  26 2.52 107 3.10  80 3.17
 110  0.319  0.671  0.481-  16 2.27  18 2.44  14 2.55 108 3.25 100 3.27  98 3.33
 111  0.753  0.572  0.771-  27 2.28 112 2.39  38 2.49 106 3.10
 112  0.756  0.412  0.709- 114 1.36 113 1.36 111 2.39
 113  0.869  0.467  0.690- 112 1.36
 114  0.730  0.420  0.622- 112 1.36
 
  LATTYP: Found a hexagonal cell.
 ALAT       =    13.6750001907
 C/A-ratio  =     1.0798537472
  
  Lattice vectors:
  
 A1 = (  13.6750001907,   0.0000000000,   0.0000000000)
 A2 = (  -6.8375000954,  11.8428975619,   0.0000000000)
 A3 = (   0.0000000000,   0.0000000000,  14.7670001984)


Analysis of symmetry for initial positions (statically):
=====================================================================
 Subroutine PRICEL returns:
 Original cell was already a primitive cell.
 

 Routine SETGRP: Setting up the symmetry group for a 
 hexagonal supercell.


 Subroutine GETGRP returns: Found  1 space group operations
 (whereof  1 operations were pure point group operations)
 out of a pool of 24 trial point group operations.


The static configuration has the point symmetry C_1 .


Analysis of symmetry for dynamics (positions and initial velocities):
=====================================================================
 Subroutine PRICEL returns:
 Original cell was already a primitive cell.
 

 Routine SETGRP: Setting up the symmetry group for a 
 hexagonal supercell.


 Subroutine GETGRP returns: Found  1 space group operations
 (whereof  1 operations were pure point group operations)
 out of a pool of 24 trial point group operations.


The dynamic configuration has the point symmetry C_1 .


Analysis of structural, dynamic, and magnetic symmetry:
=====================================================================
 Subroutine PRICEL returns:
 Original cell was already a primitive cell.
 

 Routine SETGRP: Setting up the symmetry group for a 
 hexagonal supercell.


 Subroutine GETGRP returns: Found  1 space group operations
 (whereof  1 operations were pure point group operations)
 out of a pool of 24 trial point group operations.


The magnetic configuration has the point symmetry C_1 .


 Subroutine INISYM returns: Found  1 space group operations
 (whereof  1 operations are pure point group operations),
 and found     1 'primitive' translations

 
 
 KPOINTS: Gamma points only                       
  k-points in reciprocal lattice
Space group operators:
 irot       det(A)        alpha          n_x          n_y          n_z        tau_x        tau_y        tau_z
    1     1.000000     0.000000     1.000000     0.000000     0.000000     0.000000     0.000000     0.000000


--------------------------------------------------------------------------------------------------------




 Dimension of arrays:
   k-points           NKPTS =      1   k-points in BZ     NKDIM =      1   number of bands    NBANDS=    428
   number of dos      NEDOS =    301   number of ions     NIONS =    114
   non local maximal  LDIM  =      6   non local SUM 2l+1 LMDIM =     18
   total plane-waves  NPLWV = 777600
   max r-space proj   IRMAX =   4725   max aug-charges    IRDMAX= 128081
   dimension x,y,z NGX =    90 NGY =   90 NGZ =   96
   dimension x,y,z NGXF=   180 NGYF=  180 NGZF=  192
   support grid    NGXF=   360 NGYF=  360 NGZF=  384
   ions per type =              72  33   3   3   1   2
   NGX,Y,Z   is equivalent  to a cutoff of  10.94, 10.94, 10.81 a.u.
   NGXF,Y,Z  is equivalent  to a cutoff of  21.88, 21.88, 21.62 a.u.

 SYSTEM =  zeolite                                 
 POSCAR =  O  C                                    

 Startparameter for this run:
   NWRITE =      2    write-flag & timer
   PREC   = acc       normal or accurate (medium, high low for compatibility)
   ISTART =      0    job   : 0-new  1-cont  2-samecut
   ICHARG =      2    charge: 1-file 2-atom 10-const
   ISPIN  =      2    spin polarized calculation?
   LNONCOLLINEAR =      F non collinear calculations
   LSORBIT =      F    spin-orbit coupling
   INIWAV =      1    electr: 0-lowe 1-rand  2-diag
   LASPH  =      F    aspherical Exc in radial PAW
   METAGGA=      F    non-selfconsistent MetaGGA calc.

 Electronic Relaxation 1
   ENCUT  =  400.0 eV  29.40 Ry    5.42 a.u.  22.30 22.30 24.08*2*pi/ulx,y,z
   ENINI  =  400.0     initial cutoff
   ENAUG  =  605.4 eV  augmentation charge cutoff
   NELM   =    100;   NELMIN=  2; NELMDL= -5     # of ELM steps 
   EDIFF  = 0.1E-07   stopping-criterion for ELM
   LREAL  =      T    real-space projection
   NLSPLINE    = F    spline interpolate recip. space projectors
   LCOMPAT=      F    compatible to vasp.4.4
   GGA_COMPAT  = T    GGA compatible to vasp.4.4-vasp.4.6
   LMAXPAW     = -100 max onsite density
   LMAXMIX     =    2 max onsite mixed and CHGCAR
   VOSKOWN=      0    Vosko Wilk Nusair interpolation
   ROPT   =   -0.00025  -0.00025  -0.00025  -0.00025
   ROPT   =   -0.00025  -0.00025
 Ionic relaxation
   EDIFFG = -.1E-07   stopping-criterion for IOM
   NSW    =     10    number of steps for IOM
   NBLOCK =      1;   KBLOCK =     10    inner block; outer block 
   IBRION =      3    ionic relax: 0-MD 1-quasi-New 2-CG
   NFREE  =      0    steps in history (QN), initial steepest desc. (CG)
   ISIF   =      2    stress and relaxation
   IWAVPR =     11    prediction:  0-non 1-charg 2-wave 3-comb
   ISYM   =      2    0-nonsym 1-usesym 2-fastsym
   LCORR  =      T    Harris-Foulkes like correction to forces

   POTIM  = 0.0000    time-step for ionic-motion
   TEIN   =    0.0    initial temperature
   TEBEG  =    0.0;   TEEND  =   0.0 temperature during run
   SMASS  =  -3.00    Nose mass-parameter (am)
   estimated Nose-frequenzy (Omega)   =  0.10E-29 period in steps =  0.00 mass=  -0.427E-26a.u.
   SCALEE = 1.0000    scale energy and forces
   NPACO  =    256;   APACO  = 16.0  distance and # of slots for P.C.
   PSTRESS=    0.0 pullay stress

  Mass of Ions in am
   POMASS =  16.00 28.09 26.98107.87 32.07  1.00
  Ionic Valenz
   ZVAL   =   6.00  4.00  3.00 11.00  6.00  1.00
  Atomic Wigner-Seitz radii
   RWIGS  =  -1.00 -1.00 -1.00 -1.00 -1.00 -1.00
  virtual crystal weights 
   VCA    =   1.00  1.00  1.00  1.00  1.00  1.00
   NELECT =     614.0000    total number of electrons
   NUPDOWN=      -1.0000    fix difference up-down

 DOS related values:
   EMIN   =  10.00;   EMAX   =-10.00  energy-range for DOS
   EFERMI =   0.00
   ISMEAR =     0;   SIGMA  =   0.05  broadening in eV -4-tet -1-fermi 0-gaus

 Electronic relaxation 2 (details)
   IALGO  =     38    algorithm
   LDIAG  =      T    sub-space diagonalisation (order eigenvalues)
   LSUBROT=      F    optimize rotation matrix (better conditioning)
   TURBO    =      0    0=normal 1=particle mesh
   IRESTART =      0    0=no restart 2=restart with 2 vectors
   NREBOOT  =      0    no. of reboots
   NMIN     =      0    reboot dimension
   EREF     =   0.00    reference energy to select bands
   IMIX   =      4    mixing-type and parameters
     AMIX     =   0.40;   BMIX     =  1.00
     AMIX_MAG =   1.60;   BMIX_MAG =  1.00
     AMIN     =   0.10
     WC   =   100.;   INIMIX=   1;  MIXPRE=   1;  MAXMIX= -45

 Intra band minimization:
   WEIMIN = 0.0010     energy-eigenvalue tresh-hold
   EBREAK =  0.58E-12  absolut break condition
   DEPER  =   0.30     relativ break condition  

   TIME   =   0.40     timestep for ELM

  volume/ion in A,a.u.               =      20.98       141.57
  Fermi-wavevector in a.u.,A,eV,Ry     =   1.040491  1.966243 14.729966  1.082622
  Thomas-Fermi vector in A             =   2.175069
 
 Write flags
   LWAVE        =      F    write WAVECAR
   LDOWNSAMPLE  =      F    k-point downsampling of WAVECAR
   LCHARG       =      F    write CHGCAR
   LVTOT        =      F    write LOCPOT, total local potential
   LVHAR        =      F    write LOCPOT, Hartree potential only
   LELF         =      F    write electronic localiz. function (ELF)
   LORBIT       =     11    0 simple, 1 ext, 2 COOP (PROOUT), +10 PAW based schemes


 Dipole corrections
   LMONO  =      F    monopole corrections only (constant potential shift)
   LDIPOL =      F    correct potential (dipole corrections)
   IDIPOL =      0    1-x, 2-y, 3-z, 4-all directions 
   EPSILON=  1.0000000 bulk dielectric constant

 Exchange correlation treatment:
   GGA     =    --    GGA type
   LEXCH   =     8    internal setting for exchange type
   VOSKOWN=      0    Vosko Wilk Nusair interpolation
   LHFCALC =     F    Hartree Fock is set to
   LHFONE  =     F    Hartree Fock one center treatment
   AEXX    =    0.0000 exact exchange contribution

 Linear response parameters
   LEPSILON=     F    determine dielectric tensor
   LRPA    =     F    only Hartree local field effects (RPA)
   LNABLA  =     F    use nabla operator in PAW spheres
   LVEL    =     F    velocity operator in full k-point grid
   LINTERFAST=   F  fast interpolation
   KINTER  =     0    interpolate to denser k-point grid
   CSHIFT  =0.1000    complex shift for real part using Kramers Kronig
   OMEGAMAX=  -1.0    maximum frequency
   DEG_THRESHOLD= 0.2000000E-02 threshold for treating states as degnerate
   RTIME   =   -0.100 relaxation time in fs
  (WPLASMAI=    0.000 imaginary part of plasma frequency in eV, 0.658/RTIME)
   DFIELD  = 0.0000000 0.0000000 0.0000000 field for delta impulse in time
 
 Orbital magnetization related:
   ORBITALMAG=     F  switch on orbital magnetization
   LCHIMAG   =     F  perturbation theory with respect to B field
   DQ        =  0.001000  dq finite difference perturbation B field
   LLRAUG    =     F  two centre corrections for induced B field



--------------------------------------------------------------------------------------------------------


 quickmin algorithm: (dynamic with friction)
 charge density and potential will be updated during run
 spin polarized calculation
 Variant of blocked Davidson
 Davidson routine will perform the subspace rotation
 perform sub-space diagonalisation
    after iterative eigenvector-optimisation
 modified Broyden-mixing scheme, WC =      100.0
 initial mixing is a Kerker type mixing with AMIX =  0.4000 and BMIX =      1.0000
 Hartree-type preconditioning will be used
 using additional bands          121
 real space projection scheme for non local part
 use partial core corrections
 calculate Harris-corrections to forces 
   (improved forces if not selfconsistent)
 use gradient corrections 
 use of overlap-Matrix (Vanderbilt PP)
 Gauss-broadening in eV      SIGMA  =   0.05


--------------------------------------------------------------------------------------------------------


  energy-cutoff  :      400.00
  volume of cell :     2391.54
      direct lattice vectors                 reciprocal lattice vectors
    13.675000191  0.000000000  0.000000000     0.073126142  0.042219398  0.000000000
    -6.837500095 11.842897562  0.000000000     0.000000000  0.084438795  0.000000000
     0.000000000  0.000000000 14.767000198     0.000000000  0.000000000  0.067718561

  length of vectors
    13.675000191 13.675000191 14.767000198     0.084438795  0.084438795  0.067718561


 
 k-points in units of 2pi/SCALE and weight: Gamma points only                       
   0.00000000  0.00000000  0.00000000       1.000
 
 k-points in reciprocal lattice and weights: Gamma points only                       
   0.00000000  0.00000000  0.00000000       1.000
 
 position of ions in fractional coordinates (direct lattice) 
   0.89873133  0.09903087  0.11876697
   0.10143377  0.88729010  0.88121363
   0.89176658  0.79198943  0.12618397
   0.09502268  0.19807102  0.86780654
   0.19611801  0.10529020  0.11757704
   0.80233639  0.90296562  0.88045322
   0.55204312  0.42615996  0.45829369
   0.76338598  0.23601822  0.22029428
   0.56651311  0.14305213  0.47164348
   0.76562666  0.53808673  0.20493571
   0.86398572  0.42471103  0.46597429
   0.46429256  0.23721741  0.18450782
   0.23179104  0.77471196  0.77414204
   0.42423186  0.56888676  0.52542480
   0.22904758  0.44592920  0.77180100
   0.42710053  0.85000904  0.53255720
   0.52989629  0.75674542  0.80620058
   0.12386537  0.56020966  0.53293716
   0.97715762  0.31667017  0.16301489
   0.02306358  0.66923750  0.84317264
   0.67833081  0.67422491  0.17746998
   0.31280323  0.31547743  0.81957123
   0.31823634  0.01595854  0.17844218
   0.66366979  0.97997835  0.82827618
   0.32098369  0.98386177  0.83948733
   0.67776187  0.00679230  0.16276881
   0.66822003  0.67121783  0.81555703
   0.33218692  0.32505732  0.15867688
   0.01506395  0.33617914  0.83228723
   0.98744766  0.67263716  0.17788594
   0.64629210  0.64087401  0.50589914
   0.34285513  0.99308047  0.47569135
   0.99525361  0.33731382  0.49929952
   0.33428136  0.34896646  0.48262059
   0.98504477  0.64234580  0.50671123
   0.64762450  0.00695908  0.51568404
   0.11778382  0.24471926  0.12983795
   0.88169977  0.74216751  0.86146084
   0.76249790  0.87992288  0.11725458
   0.22585798  0.10703544  0.87168494
   0.11044989  0.88440009  0.13185483
   0.87524425  0.12237213  0.86219304
   0.77075500  0.55055669  0.47489390
   0.53565984  0.08814933  0.17560448
   0.41409557  0.20930949  0.46886411
   0.90427924  0.45546477  0.19803270
   0.78366300  0.20620774  0.45484689
   0.54584102  0.45711302  0.19870830
   0.44786216  0.89612925  0.80848965
   0.20922744  0.42805772  0.54457228
   0.12291964  0.55544768  0.80388680
   0.57815422  0.78741246  0.52174464
   0.44735168  0.53499404  0.80232655
   0.20058579  0.77694554  0.54764596
   0.99802168  0.26126313  0.99616640
   0.99557291  0.72820097  0.00584676
   0.72572808  0.71441153  0.00231126
   0.25641879  0.26615625  0.99244856
   0.26465226  0.99902559  0.00503393
   0.66583921  0.58850308  0.33722203
   0.63141392  0.05059984  0.34224785
   0.44006126  0.10889846  0.32578463
   0.91336478  0.58306716  0.33835092
   0.93808888  0.34649419  0.33217737
   0.40315250  0.32181828  0.32386803
   0.35872263  0.95168067  0.66799008
   0.35459039  0.40913706  0.65560366
   0.05581719  0.40882701  0.66647169
   0.57465848  0.89740986  0.66852234
   0.56578452  0.65920332  0.66291025
   0.05239879  0.63577937  0.67194782
   0.73091851  0.00829002  0.99531716
   0.99635403  0.22966652  0.10256338
   0.99952148  0.75839345  0.89881953
   0.76352173  0.76352138  0.10233555
   0.22177553  0.22128063  0.88893988
   0.22186257  0.00187837  0.10789070
   0.77035507  0.99959150  0.89050555
   0.22710509  0.99322991  0.89934455
   0.76927923  0.99871337  0.10079492
   0.22564621  0.23450143  0.09917468
   0.99601128  0.22763845  0.89083641
   0.99502178  0.76891344  0.10933770
   0.65844970  0.55138365  0.44169258
   0.43949964  0.10977486  0.43600550
   0.89175156  0.56134286  0.22967869
   0.89275795  0.32659538  0.43551318
   0.43697419  0.33471116  0.21712540
   0.89128604  0.33476594  0.22788967
   0.42609117  0.32505101  0.43167236
   0.44011876  0.11249203  0.21694370
   0.88417047  0.54999814  0.44367838
   0.66473835  0.56436614  0.22905568
   0.65556565  0.10068358  0.44276099
   0.33970990  0.90331060  0.76862536
   0.33100663  0.43658862  0.55355557
   0.10642177  0.43619385  0.76926237
   0.55656420  0.88806112  0.55960432
   0.55316578  0.65665276  0.77254621
   0.09203269  0.65869718  0.56561788
   0.55533426  0.66527345  0.55485966
   0.10997457  0.66225687  0.77318479
   0.09401642  0.43129323  0.56133392
   0.55361997  0.88223916  0.77644939
   0.33565914  0.42596122  0.76275177
   0.77075255  0.76448336  0.89406753
   0.65586535  0.09744249  0.23165495
   0.33082448  0.89936892  0.55804470
   0.56054441  0.02208335  0.03773208
   0.31866876  0.67097374  0.48061640
   0.75332432  0.57223940  0.77106926
   0.75645326  0.41244113  0.70884556
   0.86861533  0.46672900  0.68986138
   0.72952895  0.41950194  0.62159998
 
 position of ions in cartesian coordinates  (Angst):
  11.61302746  1.17281245  1.75383192
  -4.67973938 10.50808579 13.01288185
   6.77968026  9.37944974  1.86335870
  -0.05487546  2.34573480 12.81489942
   1.96199214  1.24694101  1.73626015
   4.79792273 10.69372930 13.00165283
   4.63532101  5.04696879  6.76762306
   8.82552880  2.79513966  3.25308574
   6.76894797  1.69415168  6.96475938
   6.79077669  6.37250600  3.02628571
   8.91104323  5.02980919  6.88104250
   4.72722679  2.80934143  2.72462699
  -2.12735068  9.17483444 11.43175559
   1.91160751  6.73726763  7.75894818
   0.08318467  5.28109389 11.39718547
   0.02866295 10.06656998  7.86427224
   2.07208506  8.96205846 11.90516410
  -2.13657469  6.63450559  7.86988321
  11.19739832  3.75029242  2.40724084
  -4.26051698  7.92571118 12.45113059
   4.66616101  7.98477655  2.62069924
   2.12050731  3.73616687 12.10260848
   4.24276551  0.18899541  2.63505568
   2.37508237 11.60578326 12.23115458
  -2.33770299 11.65177417 12.39670952
   9.22195132  0.08044047  2.40360702
   4.54845711  7.94916396 12.04333088
   2.32007678  3.84962052  2.34318153
  -2.09262544  3.98133513 12.29038562
   8.90419024  7.96597301  2.62684173
   4.45606846  7.58980523  7.47061273
  -2.10164384 11.76095026  7.02453426
  11.30371008  3.99477302  7.37315606
   2.18523944  4.13277401  7.12685833
   9.07844797  7.60723550  7.48260491
   8.80868252  0.08241565  7.61510633
  -0.06257412  2.89818509  1.91731705
   6.98267409  8.78941379 12.72119243
   4.41068613 10.42083649  1.73149847
   2.35675307  1.26760971 12.87217164
  -4.53668343 10.47385968  1.94710030
  11.13224578  1.44924059 12.73200475
   6.77564328  6.52018651  7.01275825
   6.72242737  1.04394343  2.59315142
   4.23160331  2.47883087  6.92371638
   9.25177838  5.39402263  2.92434888
   9.30664621  2.44209714  6.71672411
   4.33886570  5.41354272  2.93432556
  -0.00276865 10.61276688 11.93896683
  -0.06565948  5.06944372  8.04169893
  -2.11694753  6.57810997 11.87099656
   2.52232625  9.32524516  7.70460318
   2.45951257  6.33587956 11.84795635
  -2.56935455  9.20128650  8.08708802
  11.86155997  3.09411243 14.71038949
   8.63538555  8.62400954  0.08633913
   5.03954277  8.46070254  0.03413033
   1.68668357  3.15206123 14.65548806
  -3.21171777 11.83135768  0.07433609
   5.08146146  6.96958173  4.97975780
   8.28860907  0.59924878  5.05397413
   5.27324460  1.28967337  4.81086168
   8.50354172  6.90520468  4.99642806
  10.45921159  4.10349515  4.90526332
   3.31267798  3.81126090  4.78255929
  -1.60158463 11.27065670  9.86420964
   2.05154895  4.84536835  9.68129931
  -2.03205470  4.84169642  9.84178763
   1.72241484 10.62793306  9.87206953
   3.22980067  7.80687737  9.78919574
  -3.63058808  7.52946995  9.92265359
   9.93862774  0.09817789 14.69784871
  12.05479662  2.71991711  1.51455353
   8.48294111  8.98157595 13.27286814
   5.22058234  9.04230545  1.51118902
   1.51977404  2.62060388 13.12697542
   3.02112734  0.02224530  1.59322202
   3.69989877 11.83805977 13.15009561
  -3.68554746 11.76272006 13.28062114
   3.69119083 11.82766011  1.48843857
   1.48230838  2.77717638  1.46451253
  12.06397652  2.69589888 13.15498146
   8.34947731  9.10616308  1.61458981
   5.23421407  6.52998003  6.52247449
   5.25957203  1.30005243  6.43849327
   8.35652091  6.64792598  3.39166532
   9.97536916  3.86783564  6.43122326
   3.68703460  3.96394995  3.20629088
   9.89937469  3.96459869  3.36524685
   3.60426048  3.84954579  6.37450576
   5.24945984  1.33223155  3.20360772
   8.33041904  6.51357158  6.55179878
   5.23144344  6.68373041  3.38246526
   8.27643640  1.19238530  6.53825163
  -1.53085332 10.69781486 11.35029088
   1.54134093  5.17047431  8.17435516
  -1.52715771  5.16579910 11.35969763
   1.53889761 10.51721683  8.26367714
   3.07467883  7.77667133 11.40819005
  -3.24529493  7.80088320  8.35247939
   3.04538881  7.87876529  8.19361268
  -3.02427920  7.84304029 11.41761998
  -1.66329295  5.10776154  8.28921811
   1.53844288 10.44826795 11.46582828
   1.67762897  5.04461507 11.26355548
   5.31288619  9.05369816 13.20269544
   8.30269578  1.15400141  3.42084869
  -1.62541015 10.65113393  8.24064619
   7.51444999  0.26153080  0.55718968
  -0.22998763  7.94627323  7.09726246
   6.38902331  6.77697263 11.38637986
   7.52443218  4.88449805 10.46752252
   8.68705527  5.52742370 10.18718306
   7.10796396  4.96811844  9.17916702
 


--------------------------------------------------------------------------------------------------------


 k-point  1 :   0.0000 0.0000 0.0000  plane waves:   43405

 maximum and minimum number of plane-waves per node :     10852    10850

 maximum number of plane-waves:     43405
 maximum index in each direction: 
   IXMAX=   22   IYMAX=   22   IZMAX=   24
   IXMIN=  -22   IYMIN=  -22   IZMIN=  -24


 real space projection operators:
  total allocation   :      30483.87 KBytes
  max/ min on nodes  :       7782.92       7460.49


 parallel 3D FFT for wavefunctions:
    minimum data exchange during FFTs selected (reduces bandwidth)
 parallel 3D FFT for charge:
    minimum data exchange during FFTs selected (reduces bandwidth)


 total amount of memory used by VASP MPI-rank0   214442. kBytes
=======================================================================

   base      :      30000. kBytes
   nonlr-proj:      18740. kBytes
   fftplans  :      63994. kBytes
   grid      :      62827. kBytes
   one-center:        902. kBytes
   wavefun   :      37979. kBytes
 
     INWAV:  cpu time    0.0000: real time    0.0011
 Broyden mixing: mesh for mixing (old mesh)
   NGX = 45   NGY = 45   NGZ = 49
  (NGX  =180   NGY  =180   NGZ  =192)
  gives a total of  99225 points

 initial charge density was supplied:
 charge density of overlapping atoms calculated
 number of electron     614.0000000 magnetization     114.0000000
 keeping initial charge density in first step


--------------------------------------------------------------------------------------------------------


 Maximum index for non-local projection operator         1301
 Maximum index for augmentation-charges         7882 (set IRDMAX)


--------------------------------------------------------------------------------------------------------


 First call to EWALD:  gamma=   0.133
 Maximum number of real-space cells 3x 3x 3
 Maximum number of reciprocal cells 3x 3x 3

    FEWALD:  cpu time    0.0068: real time    0.0068


--------------------------------------- Iteration      1(   1)  ---------------------------------------


    POTLOK:  cpu time    0.5304: real time    0.5484
    SETDIJ:  cpu time    0.3870: real time    0.3879
     EDDAV:  cpu time   13.4866: real time   13.5191
       DOS:  cpu time    0.0007: real time    0.0007
    --------------------------------------------
      LOOP:  cpu time   14.4047: real time   14.4562

 eigenvalue-minimisations  :  1776
 total energy-change (2. order) : 0.4341076E+04  (-0.2555260E+05)
 number of electron     614.0000000 magnetization     114.0000000
 augmentation part      614.0000000 magnetization     114.0000000

 Free energy of the ion-electron system (eV)
  ---------------------------------------------------
  alpha Z        PSCENC =       630.52029633
  Ewald energy   TEWEN  =     -6243.44485430
  -Hartree energ DENC   =    -28474.44123447
  -exchange      EXHF   =         0.00000000
  -V(xc)+E(xc)   XCENC  =      1637.39484748
  PAW double counting   =     21607.15392106   -20920.97592430
  entropy T*S    EENTRO =        -0.03763876
  eigenvalues    EBANDS =     -1993.81606568
  atomic energy  EATOM  =     38098.72285629
  Solvation  Ediel_sol  =         0.00000000
  ---------------------------------------------------
  free energy    TOTEN  =      4341.07620365 eV

  energy without entropy =     4341.11384241  energy(sigma->0) =     4341.09502303


--------------------------------------------------------------------------------------------------------




--------------------------------------- Iteration      1(   2)  ---------------------------------------


     EDDAV:  cpu time   15.1787: real time   15.2563
       DOS:  cpu time    0.0003: real time    0.0003
    --------------------------------------------
      LOOP:  cpu time   15.1790: real time   15.2566

 eigenvalue-minimisations  :  2088
 total energy-change (2. order) :-0.4760481E+04  (-0.4579494E+04)
 number of electron     614.0000000 magnetization     114.0000000
 augmentation part      614.0000000 magnetization     114.0000000

 Free energy of the ion-electron system (eV)
  ---------------------------------------------------
  alpha Z        PSCENC =       630.52029633
  Ewald energy   TEWEN  =     -6243.44485430
  -Hartree energ DENC   =    -28474.44123447
  -exchange      EXHF   =         0.00000000
  -V(xc)+E(xc)   XCENC  =      1637.39484748
  PAW double counting   =     21607.15392106   -20920.97592430
  entropy T*S    EENTRO =        -0.00000000
  eigenvalues    EBANDS =     -6754.33501633
  atomic energy  EATOM  =     38098.72285629
  Solvation  Ediel_sol  =         0.00000000
  ---------------------------------------------------
  free energy    TOTEN  =      -419.40510825 eV

  energy without entropy =     -419.40510825  energy(sigma->0) =     -419.40510825


--------------------------------------------------------------------------------------------------------




--------------------------------------- Iteration      1(   3)  ---------------------------------------


     EDDAV:  cpu time   15.4258: real time   15.4642
       DOS:  cpu time    0.0003: real time    0.0003
    --------------------------------------------
      LOOP:  cpu time   15.4262: real time   15.4645

 eigenvalue-minimisations  :  2120
 total energy-change (2. order) :-0.5148796E+03  (-0.5113668E+03)
 number of electron     614.0000000 magnetization     114.0000000
 augmentation part      614.0000000 magnetization     114.0000000

 Free energy of the ion-electron system (eV)
  ---------------------------------------------------
  alpha Z        PSCENC =       630.52029633
  Ewald energy   TEWEN  =     -6243.44485430
  -Hartree energ DENC   =    -28474.44123447
  -exchange      EXHF   =         0.00000000
  -V(xc)+E(xc)   XCENC  =      1637.39484748
  PAW double counting   =     21607.15392106   -20920.97592430
  entropy T*S    EENTRO =        -0.00000000
  eigenvalues    EBANDS =     -7269.21457684
  atomic energy  EATOM  =     38098.72285629
  Solvation  Ediel_sol  =         0.00000000
  ---------------------------------------------------
  free energy    TOTEN  =      -934.28466876 eV

  energy without entropy =     -934.28466876  energy(sigma->0) =     -934.28466876


--------------------------------------------------------------------------------------------------------




--------------------------------------- Iteration      1(   4)  ---------------------------------------


     EDDAV:  cpu time   15.4685: real time   15.5111
       DOS:  cpu time    0.0003: real time    0.0003
    --------------------------------------------
      LOOP:  cpu time   15.4688: real time   15.5114

 eigenvalue-minimisations  :  2128
 total energy-change (2. order) :-0.1027139E+02  (-0.1023581E+02)
 number of electron     614.0000000 magnetization     114.0000000
 augmentation part      614.0000000 magnetization     114.0000000

 Free energy of the ion-electron system (eV)
  ---------------------------------------------------
  alpha Z        PSCENC =       630.52029633
  Ewald energy   TEWEN  =     -6243.44485430
  -Hartree energ DENC   =    -28474.44123447
  -exchange      EXHF   =         0.00000000
  -V(xc)+E(xc)   XCENC  =      1637.39484748
  PAW double counting   =     21607.15392106   -20920.97592430
  entropy T*S    EENTRO =        -0.00000000
  eigenvalues    EBANDS =     -7279.48597127
  atomic energy  EATOM  =     38098.72285629
  Solvation  Ediel_sol  =         0.00000000
  ---------------------------------------------------
  free energy    TOTEN  =      -944.55606319 eV

  energy without entropy =     -944.55606319  energy(sigma->0) =     -944.55606319


--------------------------------------------------------------------------------------------------------




--------------------------------------- Iteration      1(   5)  ---------------------------------------


     EDDAV:  cpu time   15.5822: real time   15.6265
       DOS:  cpu time    0.0003: real time    0.0003
    CHARGE:  cpu time    1.0380: real time    1.0404
    MIXING:  cpu time    0.0231: real time    0.0232
    --------------------------------------------
      LOOP:  cpu time   16.6436: real time   16.6904

 eigenvalue-minimisations  :  2152
 total energy-change (2. order) :-0.2586565E+00  (-0.2583076E+00)
 number of electron     614.0000004 magnetization      86.0401199
 augmentation part       68.7648189 magnetization      87.2393645

 Broyden mixing:
  rms(total) = 0.86508E+01    rms(broyden)= 0.86466E+01
  rms(prec ) = 0.94485E+01
  weight for this iteration     100.00

 Free energy of the ion-electron system (eV)
  ---------------------------------------------------
  alpha Z        PSCENC =       630.52029633
  Ewald energy   TEWEN  =     -6243.44485430
  -Hartree energ DENC   =    -28474.44123447
  -exchange      EXHF   =         0.00000000
  -V(xc)+E(xc)   XCENC  =      1637.39484748
  PAW double counting   =     21607.15392106   -20920.97592430
  entropy T*S    EENTRO =        -0.00000000
  eigenvalues    EBANDS =     -7279.74462778
  atomic energy  EATOM  =     38098.72285629
  Solvation  Ediel_sol  =         0.00000000
  ---------------------------------------------------
  free energy    TOTEN  =      -944.81471969 eV

  energy without entropy =     -944.81471969  energy(sigma->0) =     -944.81471969


--------------------------------------------------------------------------------------------------------




--------------------------------------- Iteration      1(   6)  ---------------------------------------


    POTLOK:  cpu time    0.5237: real time    0.5314
    SETDIJ:  cpu time    0.3790: real time    0.3799
     EDDAV:  cpu time   14.7694: real time   14.8055
       DOS:  cpu time    0.0003: real time    0.0003
    CHARGE:  cpu time    1.0511: real time    1.0536
    MIXING:  cpu time    0.0350: real time    0.0350
    --------------------------------------------
      LOOP:  cpu time   16.7585: real time   16.8057

 eigenvalue-minimisations  :  1996
 total energy-change (2. order) : 0.3481326E+03  (-0.7188052E+02)
 number of electron     614.0000004 magnetization      63.2176621
 augmentation part       60.9059097 magnetization      59.2870742

 Broyden mixing:
  rms(total) = 0.28053E+01    rms(broyden)= 0.28017E+01
  rms(prec ) = 0.30354E+01
  weight for this iteration     100.00

 eigenvalues of (default mixing * dielectric matrix)
  average eigenvalue GAMMA=   1.0028
  1.0028

 Free energy of the ion-electron system (eV)
  ---------------------------------------------------
  alpha Z        PSCENC =       630.52029633
  Ewald energy   TEWEN  =     -6243.44485430
  -Hartree energ DENC   =    -29852.81305874
  -exchange      EXHF   =         0.00000000
  -V(xc)+E(xc)   XCENC  =      1889.96940139
  PAW double counting   =     25337.01767624   -24674.27335049
  entropy T*S    EENTRO =        -0.00000000
  eigenvalues    EBANDS =     -5782.38106566
  atomic energy  EATOM  =     38098.72285629
  Solvation  Ediel_sol  =         0.00000000
  ---------------------------------------------------
  free energy    TOTEN  =      -596.68209894 eV

  energy without entropy =     -596.68209894  energy(sigma->0) =     -596.68209894


--------------------------------------------------------------------------------------------------------




--------------------------------------- Iteration      1(   7)  ---------------------------------------


    POTLOK:  cpu time    0.5202: real time    0.5225
    SETDIJ:  cpu time    0.3812: real time    0.3821
     EDDAV:  cpu time   15.0970: real time   15.1328
       DOS:  cpu time    0.0003: real time    0.0003
    CHARGE:  cpu time    1.0326: real time    1.0351
    MIXING:  cpu time    0.0246: real time    0.0246
    --------------------------------------------
      LOOP:  cpu time   17.0559: real time   17.0974

 eigenvalue-minimisations  :  2056
 total energy-change (2. order) :-0.8980981E+02  (-0.8283530E+01)
 number of electron     614.0000004 magnetization      41.8447921
 augmentation part       58.3330987 magnetization      38.3411607

 Broyden mixing:
  rms(total) = 0.19236E+01    rms(broyden)= 0.19230E+01
  rms(prec ) = 0.20219E+01
  weight for this iteration     100.00

 eigenvalues of (default mixing * dielectric matrix)
  average eigenvalue GAMMA=   1.0523
  1.0523  1.0523

 Free energy of the ion-electron system (eV)
  ---------------------------------------------------
  alpha Z        PSCENC =       630.52029633
  Ewald energy   TEWEN  =     -6243.44485430
  -Hartree energ DENC   =    -30290.61267140
  -exchange      EXHF   =         0.00000000
  -V(xc)+E(xc)   XCENC  =      1850.94461969
  PAW double counting   =     26718.86002134   -26059.10765011
  entropy T*S    EENTRO =        -0.00000000
  eigenvalues    EBANDS =     -5392.37452694
  atomic energy  EATOM  =     38098.72285629
  Solvation  Ediel_sol  =         0.00000000
  ---------------------------------------------------
  free energy    TOTEN  =      -686.49190911 eV

  energy without entropy =     -686.49190911  energy(sigma->0) =     -686.49190911


--------------------------------------------------------------------------------------------------------




--------------------------------------- Iteration      1(   8)  ---------------------------------------


    POTLOK:  cpu time    0.5229: real time    0.5301
    SETDIJ:  cpu time    0.3781: real time    0.3792
     EDDAV:  cpu time   14.7031: real time   14.7380
       DOS:  cpu time    0.0003: real time    0.0003
    CHARGE:  cpu time    1.0319: real time    1.0343
    MIXING:  cpu time    0.0244: real time    0.0244
    --------------------------------------------
      LOOP:  cpu time   16.6607: real time   16.7064

 eigenvalue-minimisations  :  2000
 total energy-change (2. order) :-0.6995902E+02  (-0.3102769E+01)
 number of electron     614.0000004 magnetization      18.6343742
 augmentation part       58.6200446 magnetization      16.1366169

 Broyden mixing:
  rms(total) = 0.10912E+01    rms(broyden)= 0.10909E+01
  rms(prec ) = 0.11355E+01
  weight for this iteration     100.00

 eigenvalues of (default mixing * dielectric matrix)
  average eigenvalue GAMMA=   1.3943
  2.2785  1.1853  0.7192

 Free energy of the ion-electron system (eV)
  ---------------------------------------------------
  alpha Z        PSCENC =       630.52029633
  Ewald energy   TEWEN  =     -6243.44485430
  -Hartree energ DENC   =    -30366.19071179
  -exchange      EXHF   =         0.00000000
  -V(xc)+E(xc)   XCENC  =      1804.26058925
  PAW double counting   =     27125.31103330   -26463.92526801
  entropy T*S    EENTRO =        -0.00000000
  eigenvalues    EBANDS =     -5341.70487359
  atomic energy  EATOM  =     38098.72285629
  Solvation  Ediel_sol  =         0.00000000
  ---------------------------------------------------
  free energy    TOTEN  =      -756.45093253 eV

  energy without entropy =     -756.45093253  energy(sigma->0) =     -756.45093253


--------------------------------------------------------------------------------------------------------




--------------------------------------- Iteration      1(   9)  ---------------------------------------


    POTLOK:  cpu time    0.5164: real time    0.5189
    SETDIJ:  cpu time    0.3789: real time    0.3798
     EDDAV:  cpu time   14.8506: real time   14.8899
       DOS:  cpu time    0.0003: real time    0.0003
    CHARGE:  cpu time    1.0366: real time    1.0392
    MIXING:  cpu time    0.0236: real time    0.0237
    --------------------------------------------
      LOOP:  cpu time   16.8065: real time   16.8518

 eigenvalue-minimisations  :  2012
 total energy-change (2. order) :-0.7674604E+02  (-0.5816821E+01)
 number of electron     614.0000004 magnetization      13.4136856
 augmentation part       58.5077801 magnetization      12.1693230

 Broyden mixing:
  rms(total) = 0.48772E+00    rms(broyden)= 0.48700E+00
  rms(prec ) = 0.51177E+00
  weight for this iteration     100.00

 eigenvalues of (default mixing * dielectric matrix)
  average eigenvalue GAMMA=   1.2898
  2.4569  1.2392  0.7433  0.7200

 Free energy of the ion-electron system (eV)
  ---------------------------------------------------
  alpha Z        PSCENC =       630.52029633
  Ewald energy   TEWEN  =     -6243.44485430
  -Hartree energ DENC   =    -30484.12991436
  -exchange      EXHF   =         0.00000000
  -V(xc)+E(xc)   XCENC  =      1758.57851946
  PAW double counting   =     27546.01849125   -26884.10829827
  entropy T*S    EENTRO =        -0.00000000
  eigenvalues    EBANDS =     -5255.35407383
  atomic energy  EATOM  =     38098.72285629
  Solvation  Ediel_sol  =         0.00000000
  ---------------------------------------------------
  free energy    TOTEN  =      -833.19697745 eV

  energy without entropy =     -833.19697745  energy(sigma->0) =     -833.19697745


--------------------------------------------------------------------------------------------------------




--------------------------------------- Iteration      1(  10)  ---------------------------------------


    POTLOK:  cpu time    0.5189: real time    0.5258
    SETDIJ:  cpu time    0.3790: real time    0.3799
     EDDAV:  cpu time   15.2912: real time   15.3281
       DOS:  cpu time    0.0003: real time    0.0003
    CHARGE:  cpu time    1.0334: real time    1.0360
    MIXING:  cpu time    0.0254: real time    0.0255
    --------------------------------------------
      LOOP:  cpu time   17.2482: real time   17.2955

 eigenvalue-minimisations  :  2104
 total energy-change (2. order) :-0.1328362E+02  (-0.7758281E+00)
 number of electron     614.0000004 magnetization       4.7494810
 augmentation part       58.1414774 magnetization       3.9861739

 Broyden mixing:
  rms(total) = 0.35008E+00    rms(broyden)= 0.34963E+00
  rms(prec ) = 0.37191E+00
  weight for this iteration     100.00

 eigenvalues of (default mixing * dielectric matrix)
  average eigenvalue GAMMA=   1.4619
  2.7538  2.0072  0.9495  0.9495  0.6495

 Free energy of the ion-electron system (eV)
  ---------------------------------------------------
  alpha Z        PSCENC =       630.52029633
  Ewald energy   TEWEN  =     -6243.44485430
  -Hartree energ DENC   =    -30495.05956140
  -exchange      EXHF   =         0.00000000
  -V(xc)+E(xc)   XCENC  =      1751.51764166
  PAW double counting   =     27530.15330743   -26868.47454266
  entropy T*S    EENTRO =        -0.00000000
  eigenvalues    EBANDS =     -5250.41573688
  atomic energy  EATOM  =     38098.72285629
  Solvation  Ediel_sol  =         0.00000000
  ---------------------------------------------------
  free energy    TOTEN  =      -846.48059354 eV

  energy without entropy =     -846.48059354  energy(sigma->0) =     -846.48059354


--------------------------------------------------------------------------------------------------------




--------------------------------------- Iteration      1(  11)  ---------------------------------------


    POTLOK:  cpu time    0.5202: real time    0.5231
    SETDIJ:  cpu time    0.3819: real time    0.3828
     EDDAV:  cpu time   14.1191: real time   14.2188
       DOS:  cpu time    0.0003: real time    0.0003
    CHARGE:  cpu time    1.0208: real time    1.0232
    MIXING:  cpu time    0.0324: real time    0.0324
    --------------------------------------------
      LOOP:  cpu time   16.0746: real time   16.1806

 eigenvalue-minimisations  :  1900
 total energy-change (2. order) :-0.1685272E+02  (-0.1187794E+01)
 number of electron     614.0000004 magnetization       2.5630567
 augmentation part       58.1694264 magnetization       2.3449308

 Broyden mixing:
  rms(total) = 0.16772E+00    rms(broyden)= 0.16725E+00
  rms(prec ) = 0.17995E+00
  weight for this iteration     100.00

 eigenvalues of (default mixing * dielectric matrix)
  average eigenvalue GAMMA=   1.4241
  3.2187  1.9868  1.1622  0.7674  0.7674  0.6418

 Free energy of the ion-electron system (eV)
  ---------------------------------------------------
  alpha Z        PSCENC =       630.52029633
  Ewald energy   TEWEN  =     -6243.44485430
  -Hartree energ DENC   =    -30438.48926020
  -exchange      EXHF   =         0.00000000
  -V(xc)+E(xc)   XCENC  =      1737.06735294
  PAW double counting   =     27321.21189510   -26658.78077527
  entropy T*S    EENTRO =        -0.00000000
  eigenvalues    EBANDS =     -5310.14082358
  atomic energy  EATOM  =     38098.72285629
  Solvation  Ediel_sol  =         0.00000000
  ---------------------------------------------------
  free energy    TOTEN  =      -863.33331271 eV

  energy without entropy =     -863.33331271  energy(sigma->0) =     -863.33331271


--------------------------------------------------------------------------------------------------------




--------------------------------------- Iteration      1(  12)  ---------------------------------------


    POTLOK:  cpu time    0.4933: real time    0.4996
    SETDIJ:  cpu time    0.3753: real time    0.3762
     EDDAV:  cpu time   14.8534: real time   14.8967
       DOS:  cpu time    0.0003: real time    0.0003
    CHARGE:  cpu time    1.0352: real time    1.0378
    MIXING:  cpu time    0.0254: real time    0.0254
    --------------------------------------------
      LOOP:  cpu time   16.7830: real time   16.8360

 eigenvalue-minimisations  :  2016
 total energy-change (2. order) :-0.1936181E+01  (-0.1039330E+00)
 number of electron     614.0000004 magnetization       0.8970125
 augmentation part       58.0737130 magnetization       0.7732574

 Broyden mixing:
  rms(total) = 0.92528E-01    rms(broyden)= 0.92410E-01
  rms(prec ) = 0.10872E+00
  weight for this iteration     100.00

 eigenvalues of (default mixing * dielectric matrix)
  average eigenvalue GAMMA=   1.5006
  3.7110  2.2864  1.3199  0.9473  0.9473  0.6704  0.6220

 Free energy of the ion-electron system (eV)
  ---------------------------------------------------
  alpha Z        PSCENC =       630.52029633
  Ewald energy   TEWEN  =     -6243.44485430
  -Hartree energ DENC   =    -30430.18968193
  -exchange      EXHF   =         0.00000000
  -V(xc)+E(xc)   XCENC  =      1735.63383488
  PAW double counting   =     27316.59362314   -26654.30643592
  entropy T*S    EENTRO =        -0.00000000
  eigenvalues    EBANDS =     -5318.79913237
  atomic energy  EATOM  =     38098.72285629
  Solvation  Ediel_sol  =         0.00000000
  ---------------------------------------------------
  free energy    TOTEN  =      -865.26949389 eV

  energy without entropy =     -865.26949389  energy(sigma->0) =     -865.26949389


--------------------------------------------------------------------------------------------------------




--------------------------------------- Iteration      1(  13)  ---------------------------------------


    POTLOK:  cpu time    0.5209: real time    0.5300
    SETDIJ:  cpu time    0.3774: real time    0.3810
     EDDAV:  cpu time   14.1017: real time   14.1360
       DOS:  cpu time    0.0003: real time    0.0003
    CHARGE:  cpu time    1.0230: real time    1.0255
    MIXING:  cpu time    0.0286: real time    0.0287
    --------------------------------------------
      LOOP:  cpu time   16.0519: real time   16.1015

 eigenvalue-minimisations  :  1888
 total energy-change (2. order) :-0.1044973E+01  (-0.4393903E-01)
 number of electron     614.0000004 magnetization       0.3834029
 augmentation part       58.1303406 magnetization       0.3302517

 Broyden mixing:
  rms(total) = 0.43091E-01    rms(broyden)= 0.43021E-01
  rms(prec ) = 0.53462E-01
  weight for this iteration     100.00

 eigenvalues of (default mixing * dielectric matrix)
  average eigenvalue GAMMA=   1.4687
  3.8783  2.3553  1.3808  1.0859  0.8783  0.8783  0.6645  0.6286

 Free energy of the ion-electron system (eV)
  ---------------------------------------------------
  alpha Z        PSCENC =       630.52029633
  Ewald energy   TEWEN  =     -6243.44485430
  -Hartree energ DENC   =    -30404.43494209
  -exchange      EXHF   =         0.00000000
  -V(xc)+E(xc)   XCENC  =      1733.57001673
  PAW double counting   =     27281.35401171   -26619.02785830
  entropy T*S    EENTRO =        -0.00000000
  eigenvalues    EBANDS =     -5343.57399325
  atomic energy  EATOM  =     38098.72285629
  Solvation  Ediel_sol  =         0.00000000
  ---------------------------------------------------
  free energy    TOTEN  =      -866.31446688 eV

  energy without entropy =     -866.31446688  energy(sigma->0) =     -866.31446688


--------------------------------------------------------------------------------------------------------




--------------------------------------- Iteration      1(  14)  ---------------------------------------


    POTLOK:  cpu time    0.5246: real time    0.5335
    SETDIJ:  cpu time    0.3805: real time    0.3814
     EDDAV:  cpu time   14.4424: real time   14.4781
       DOS:  cpu time    0.0003: real time    0.0003
    CHARGE:  cpu time    1.0350: real time    1.0374
    MIXING:  cpu time    0.0274: real time    0.0274
    --------------------------------------------
      LOOP:  cpu time   16.4101: real time   16.4581

 eigenvalue-minimisations  :  1944
 total energy-change (2. order) :-0.1680970E+00  (-0.6482371E-02)
 number of electron     614.0000004 magnetization       0.1513344
 augmentation part       58.1284950 magnetization       0.1318812

 Broyden mixing:
  rms(total) = 0.25918E-01    rms(broyden)= 0.25894E-01
  rms(prec ) = 0.34120E-01
  weight for this iteration     100.00

 eigenvalues of (default mixing * dielectric matrix)
  average eigenvalue GAMMA=   1.4520
  3.9430  2.3315  1.6170  1.0508  1.0508  0.9505  0.8358  0.6491  0.6395

 Free energy of the ion-electron system (eV)
  ---------------------------------------------------
  alpha Z        PSCENC =       630.52029633
  Ewald energy   TEWEN  =     -6243.44485430
  -Hartree energ DENC   =    -30395.12486898
  -exchange      EXHF   =         0.00000000
  -V(xc)+E(xc)   XCENC  =      1733.06016513
  PAW double counting   =     27279.16391316   -26616.86576994
  entropy T*S    EENTRO =        -0.00000000
  eigenvalues    EBANDS =     -5352.51430152
  atomic energy  EATOM  =     38098.72285629
  Solvation  Ediel_sol  =         0.00000000
  ---------------------------------------------------
  free energy    TOTEN  =      -866.48256383 eV

  energy without entropy =     -866.48256383  energy(sigma->0) =     -866.48256383


--------------------------------------------------------------------------------------------------------




--------------------------------------- Iteration      1(  15)  ---------------------------------------


    POTLOK:  cpu time    0.5249: real time    0.5275
    SETDIJ:  cpu time    0.3788: real time    0.3797
     EDDAV:  cpu time   15.0572: real time   15.1541
       DOS:  cpu time    0.0003: real time    0.0003
    CHARGE:  cpu time    1.0183: real time    1.0207
    MIXING:  cpu time    0.0301: real time    0.0302
    --------------------------------------------
      LOOP:  cpu time   17.0096: real time   17.1124

 eigenvalue-minimisations  :  2048
 total energy-change (2. order) :-0.1926715E-01  (-0.1516548E-02)
 number of electron     614.0000004 magnetization       0.0565944
 augmentation part       58.1224744 magnetization       0.0490273

 Broyden mixing:
  rms(total) = 0.14032E-01    rms(broyden)= 0.14012E-01
  rms(prec ) = 0.18957E-01
  weight for this iteration     100.00

 eigenvalues of (default mixing * dielectric matrix)
  average eigenvalue GAMMA=   1.4842
  4.0013  2.3810  2.3810  1.1417  1.1417  0.8865  0.8865  0.7471  0.6306  0.6444

 Free energy of the ion-electron system (eV)
  ---------------------------------------------------
  alpha Z        PSCENC =       630.52029633
  Ewald energy   TEWEN  =     -6243.44485430
  -Hartree energ DENC   =    -30389.39152793
  -exchange      EXHF   =         0.00000000
  -V(xc)+E(xc)   XCENC  =      1732.89112109
  PAW double counting   =     27288.71909768   -26626.44650939
  entropy T*S    EENTRO =        -0.00000000
  eigenvalues    EBANDS =     -5358.07231075
  atomic energy  EATOM  =     38098.72285629
  Solvation  Ediel_sol  =         0.00000000
  ---------------------------------------------------
  free energy    TOTEN  =      -866.50183099 eV

  energy without entropy =     -866.50183099  energy(sigma->0) =     -866.50183099


--------------------------------------------------------------------------------------------------------




--------------------------------------- Iteration      1(  16)  ---------------------------------------


    POTLOK:  cpu time    0.5365: real time    0.5734
    SETDIJ:  cpu time    0.3812: real time    0.3821
     EDDAV:  cpu time   15.0918: real time   15.1292
       DOS:  cpu time    0.0003: real time    0.0003
    CHARGE:  cpu time    1.0144: real time    1.0169
    MIXING:  cpu time    0.0265: real time    0.0266
    --------------------------------------------
      LOOP:  cpu time   17.0508: real time   17.1284

 eigenvalue-minimisations  :  2056
[...]
       0.000228556860820      -0.000431932360368       0.000176076051089
      -0.000548159914633       0.000149670695802      -0.000554492061408
       0.000550267857775      -0.000107013464556       0.000344654606642
       0.000356406335716      -0.000362045593100       0.000338559279321
      -0.000006559567221      -0.000486476829288       0.000315468073188
       0.000028984354297      -0.000509842006907       0.000199830637495
       0.000019016892451       0.000319339818913       0.000357723065092
      -0.000280174987756      -0.000743509461164      -0.000045425161241
       0.000327943640536      -0.000331991275082       0.000466236453646
       0.000155169221755      -0.000404753082665      -0.000230708050010
       0.000262284938069      -0.000345182489164       0.000315770925970
      -0.000010626340368      -0.000247150341703       0.000601615138199
      -0.000228858309122      -0.000202035463152       0.000374392539222
       0.000207021312312      -0.000051427912161       0.000021944393723
       0.000530552042557       0.000239971878969       0.000292487398024
      -0.000255307761680      -0.000055169127735       0.000641767657558
       0.000256548622664      -0.000241344873914      -0.000077994754897
      -0.000098533615880       0.000006007775148       0.000334254651145
       0.000148645711801       0.000003645692727      -0.000116831336049
       0.000384483800622       0.000107835956208       0.000221212155990
       0.000237984538502      -0.000359586418800       0.000422033805855
       0.000591521397165       0.000227694256732       0.000243615294699
      -0.000045870305256      -0.000117954128567       0.000124876973197
       0.000721599233869       0.000101742752309       0.001071831701567
      -0.000219154389621      -0.000633416910113       0.000571016411533
       0.000208791054232       0.000144042244057       0.000074122002664
       0.000176697969142       0.000877210069590      -0.001584671395829
      -0.000203798465595      -0.001456554493417      -0.000481888999325
      -0.000341544544550      -0.000605726597081      -0.000448953331390
       0.000874448476057      -0.000620199296570      -0.001421713756433
      -0.000160522595919      -0.000245578150634      -0.000260711969935
       0.000044559290453      -0.000355654523190      -0.000385566363946
       0.000054946364562      -0.000485814498693       0.000334639369855
       0.000223273891060      -0.000054887970960       0.000295680751622
       0.000559729994484      -0.000181508520753       0.000428263654621
       0.000380865812441      -0.000124155771617       0.000490745629531
       0.000211475090149      -0.000347849957805       0.000243645807973
      -0.000421561746788      -0.000563686088342       0.000203283443057
       0.000406683310469       0.000455039235633      -0.000066857213439
       0.000534905607213       0.000136441215191      -0.000032358716171
       0.000126942758740      -0.000157770555999       0.000351854485650
       0.000092409874962      -0.000258692606179       0.000011917581433
       0.000670533895810       0.002440874249518       0.000508971605351
      -0.000039421646931      -0.000537413011126       0.000066722570750
      -0.002206740991622      -0.001107876530280       0.000097907824798
       0.002258585540853      -0.000137030746761      -0.000089647817355
       0.000143038163268      -0.000855196720833       0.000137904530217
       0.000700574309712       0.001633847704246       0.000149833915509
      -0.000114308938121       0.000123662851172      -0.000073549930042
       0.000214215296500      -0.000014798519360       0.000499953037588
       0.000197882591364      -0.000039749640730       0.000692165652489
       0.000303713788143       0.000349330613042       0.000159010331625
       0.000458570170545      -0.000706238113291      -0.000159227526688
      -0.000001438129554      -0.000356049821184       0.000189821551738
       0.000318295158224       0.000262170419464       0.000081970653453
       0.000022060059409      -0.000356307433949       0.000303088805015
       0.000401846663312      -0.000092331626973       0.000084380338467
      -0.000073961123229      -0.000222859547809       0.000449427165891
       0.000500123610155      -0.000026073668569       0.000578970872215
      -0.000441455863525      -0.000544477549343       0.000034059894026
      -0.000105718810570       0.000480193530630       0.000227548367476
       0.000066291674791      -0.000527969799153       0.000047258696733
      -0.000277174296566      -0.000337455088930       0.000080280947982
       0.000154328519426       0.000638371775741       0.000545836997135
      -0.000087653073747      -0.000384095638274      -0.000085665683657
       0.000346943934753       0.000198677360460       0.000020875770890
      -0.000211483079939       0.000156428113490       0.000224313800168
       0.000303449842659       0.000190392833122       0.000437381625665
      -0.000198658388325       0.000420777741379       0.000170071782150
      -0.000012463437778      -0.000397772232938       0.000256883612427
      -0.000146064108639      -0.000071199008535      -0.000055163718415
      -0.000280492461322      -0.000223954427259       0.000046920338222
       0.000460559147257      -0.000027943118853      -0.000001053509389
       0.000433618164087       0.000362924196325       0.000096330123477
       0.000292918532205      -0.000074492757808       0.000331707150457
       0.000109706578036      -0.000264445208902       0.000178325497998
       0.000178246826740      -0.000273583734649       0.000113715463817
      -0.000058720579002      -0.000236057009469       0.000306037011201
       0.000067038640337      -0.000016664158550       0.000034732809047
       0.000073849765121      -0.000301281970595       0.000218283457580
      -0.000206485370453      -0.000538898473387      -0.000266353311367
       0.000283684772309      -0.000231066431873       0.000171360545565
       0.000205698762085       0.000184797577012       0.000139358351351
       0.000079687438671      -0.000073392704984       0.000245099065364
       0.000142736131294      -0.000117455825042      -0.000117515776282
       0.000030226317589      -0.000042770309020       0.000178320116872
       0.000037855854956      -0.000039052687005       0.000128267074144
      -0.000012723725355      -0.000091695641110       0.000279472513350
      -0.001798029292138      -0.002199758234403       0.000459170889119
       0.000427527777966      -0.000002655712507       0.000163781927944
      -0.000196074865850      -0.000304811034125       0.000353330277230
       0.000033647120245      -0.000028208868895       0.000143746414365
      -0.000105477711627      -0.000210901160321       0.000190396840543
      -0.000024878041821      -0.000316009095679       0.000159671457961
       0.000651449376843       0.000183131707577       0.000039532396582
       0.000039755537213      -0.000026666716532       0.000319307150019
      -0.000175750695495      -0.000401049051348       0.000228125905919
       0.000254717187193       0.000789670653507       0.000103035001732
       0.000276364393341      -0.000423162622181       0.000320639391320
      -0.001504536970650       0.000645151640041      -0.000979249156980
       0.007532261989184       0.002901453090831       0.016590944574961
      -0.004211844822036       0.009125237043196      -0.011206501894135
      -0.013294663482802       0.001169489494953      -0.023741968607499
DYMAT: ------------------------------
DYMAT: DEGREE OF FREEDOM 112  1  1
DYMAT: ------------------------------
DYMAT: DEGREE OF FREEDOM 112  2  2
DYMAT: ------------------------------
DYMAT: DEGREE OF FREEDOM 112  3  3
DYMAT: ------------------------------
DYMAT: DEGREE OF FREEDOM 113  1  4
DYMAT: ------------------------------
DYMAT: DEGREE OF FREEDOM 113  2  5
DYMAT: ------------------------------
DYMAT: DEGREE OF FREEDOM 113  3  6
DYMAT: ------------------------------
DYMAT: DEGREE OF FREEDOM 114  1  7
DYMAT: ------------------------------
DYMAT: DEGREE OF FREEDOM 114  2  8
DYMAT: ------------------------------
DYMAT: DEGREE OF FREEDOM 114  3  9
DYMAT: LEAVING
 stress matrix after NEB project (eV)
    -22.25132     -0.48942      0.42039
     -0.48942    -23.78193     -1.01701
      0.42039     -1.01701    -28.03557
  FORCES: max atom, RMS     0.027236    0.003489
  FORCE total and by dimension    0.037253    0.023742
  Stress total and by dimension   43.006927   28.035566


--------------------------------------------------------------------------------------------------------


     LOOP+:  cpu time  163.5651: real time  164.4442
    4ORBIT:  cpu time    0.0000: real time    0.0000
 


 total charge     
 
# of ion       s       p       d       tot
------------------------------------------
    1        1.573   3.697   0.000   5.270
    2        1.572   3.703   0.000   5.274
    3        1.574   3.707   0.000   5.281
    4        1.573   3.696   0.000   5.269
    5        1.572   3.704   0.000   5.276
    6        1.575   3.665   0.000   5.240
    7        1.574   3.708   0.000   5.283
    8        1.575   3.669   0.000   5.244
    9        1.577   3.670   0.000   5.247
   10        1.573   3.695   0.000   5.269
   11        1.575   3.695   0.000   5.270
   12        1.576   3.688   0.000   5.264
   13        1.569   3.716   0.000   5.286
   14        1.575   3.657   0.000   5.231
   15        1.570   3.724   0.000   5.293
   16        1.575   3.635   0.000   5.210
   17        1.574   3.686   0.000   5.261
   18        1.575   3.660   0.000   5.235
   19        1.573   3.708   0.000   5.281
   20        1.575   3.704   0.000   5.280
   21        1.577   3.700   0.000   5.277
   22        1.574   3.700   0.000   5.274
   23        1.577   3.702   0.000   5.279
   24        1.575   3.700   0.000   5.276
   25        1.574   3.703   0.000   5.277
   26        1.579   3.660   0.000   5.240
   27        1.573   3.652   0.000   5.225
   28        1.575   3.702   0.000   5.277
   29        1.576   3.709   0.000   5.285
   30        1.576   3.700   0.000   5.276
   31        1.575   3.708   0.000   5.284
   32        1.579   3.667   0.000   5.246
   33        1.577   3.700   0.000   5.277
   34        1.576   3.700   0.000   5.276
   35        1.576   3.703   0.000   5.279
   36        1.576   3.699   0.000   5.275
   37        1.573   3.712   0.000   5.285
   38        1.576   3.650   0.000   5.226
   39        1.571   3.733   0.000   5.303
   40        1.570   3.720   0.000   5.290
   41        1.572   3.725   0.000   5.296
   42        1.574   3.707   0.000   5.281
   43        1.574   3.710   0.000   5.284
   44        1.574   3.635   0.000   5.210
   45        1.577   3.700   0.000   5.277
   46        1.574   3.706   0.000   5.280
   47        1.570   3.720   0.000   5.290
   48        1.572   3.717   0.000   5.289
   49        1.574   3.694   0.000   5.268
   50        1.569   3.723   0.000   5.292
   51        1.576   3.707   0.000   5.283
   52        1.577   3.689   0.000   5.267
   53        1.575   3.699   0.000   5.274
   54        1.576   3.677   0.000   5.252
   55        1.574   3.706   0.000   5.280
   56        1.574   3.697   0.000   5.271
   57        1.579   3.656   0.000   5.236
   58        1.574   3.694   0.000   5.267
   59        1.576   3.688   0.000   5.264
   60        1.573   3.709   0.000   5.282
   61        1.578   3.660   0.000   5.237
   62        1.568   3.725   0.000   5.293
   63        1.572   3.708   0.000   5.279
   64        1.576   3.689   0.000   5.266
   65        1.571   3.709   0.000   5.280
   66        1.578   3.655   0.000   5.232
   67        1.574   3.691   0.000   5.265
   68        1.576   3.698   0.000   5.274
   69        1.570   3.719   0.000   5.288
   70        1.570   3.723   0.000   5.293
   71        1.576   3.680   0.000   5.256
   72        1.576   3.657   0.000   5.232
   73        0.639   0.991   0.000   1.629
   74        0.644   0.991   0.000   1.634
   75        0.646   1.002   0.000   1.648
   76        0.637   0.983   0.000   1.620
   77        0.641   0.994   0.000   1.634
   78        0.645   0.991   0.000   1.636
   79        0.638   0.988   0.000   1.626
   80        0.645   0.997   0.000   1.642
   81        0.638   0.986   0.000   1.624
   82        0.640   0.991   0.000   1.631
   83        0.640   0.995   0.000   1.635
   84        0.642   1.000   0.000   1.641
   85        0.645   0.991   0.000   1.636
   86        0.639   0.987   0.000   1.626
   87        0.641   0.991   0.000   1.631
   88        0.639   0.989   0.000   1.628
   89        0.643   0.994   0.000   1.637
   90        0.642   0.993   0.000   1.635
   91        0.646   0.996   0.000   1.641
   92        0.641   0.994   0.000   1.636
   93        0.640   0.990   0.000   1.630
   94        0.644   0.988   0.000   1.632
   95        0.642   0.988   0.000   1.631
   96        0.639   0.982   0.000   1.621
   97        0.642   0.999   0.000   1.641
   98        0.645   0.992   0.000   1.637
   99        0.643   0.989   0.000   1.632
  100        0.646   0.994   0.000   1.640
  101        0.642   0.990   0.000   1.631
  102        0.641   0.994   0.000   1.635
  103        0.643   0.992   0.000   1.635
  104        0.639   0.987   0.000   1.626
  105        0.638   0.987   0.000   1.625
  106        0.341   0.452   0.000   0.794
  107        0.341   0.454   0.000   0.795
  108        0.340   0.452   0.000   0.792
  109        0.111   0.063   9.212   9.386
  110        0.124   0.080   9.210   9.415
  111        0.236   0.124   9.105   9.465
  112        1.333   2.427   0.000   3.760
  113        0.546   0.036   0.000   0.582
  114        0.546   0.035   0.000   0.582
--------------------------------------------------
tot        138.444 302.817  27.528 468.789
 


 magnetization (x)
 
# of ion       s       p       d       tot
------------------------------------------
    1        0.000   0.000   0.000   0.000
    2        0.000   0.000   0.000   0.000
    3        0.000   0.000   0.000   0.000
    4        0.000   0.000   0.000   0.000
    5        0.000   0.000   0.000   0.000
    6        0.000   0.000   0.000   0.000
    7       -0.000  -0.000   0.000  -0.000
    8       -0.000  -0.000   0.000  -0.000
    9       -0.000  -0.000   0.000  -0.000
   10       -0.000  -0.000   0.000  -0.000
   11       -0.000  -0.000   0.000  -0.000
   12       -0.000  -0.000   0.000  -0.000
   13       -0.000  -0.000   0.000  -0.000
   14       -0.000  -0.000   0.000  -0.000
   15       -0.000  -0.000   0.000  -0.000
   16       -0.000  -0.000   0.000  -0.000
   17       -0.000  -0.000   0.000  -0.000
   18       -0.000  -0.000   0.000  -0.000
   19        0.000   0.000   0.000   0.000
   20        0.000   0.000   0.000   0.000
   21        0.000   0.000   0.000   0.000
   22       -0.000  -0.000   0.000  -0.000
   23        0.000   0.000   0.000   0.000
   24        0.000   0.000   0.000   0.000
   25        0.000  -0.000   0.000  -0.000
   26        0.000   0.000   0.000   0.000
   27       -0.000   0.000   0.000  -0.000
   28        0.000   0.000   0.000   0.000
   29        0.000   0.000   0.000   0.000
   30        0.000   0.000   0.000   0.000
   31        0.000   0.000   0.000   0.000
   32        0.000   0.000   0.000   0.000
   33        0.000   0.000   0.000   0.000
   34        0.000   0.000   0.000   0.000
   35       -0.000   0.000   0.000   0.000
   36        0.000   0.000   0.000   0.000
   37        0.000  -0.000   0.000  -0.000
   38        0.000   0.000   0.000   0.000
   39        0.000   0.000   0.000   0.000
   40        0.000   0.000   0.000   0.000
   41        0.000   0.000   0.000   0.000
   42        0.000  -0.000   0.000  -0.000
   43       -0.000  -0.000   0.000  -0.000
   44        0.000   0.000   0.000   0.000
   45        0.000  -0.000   0.000  -0.000
   46        0.000  -0.000   0.000  -0.000
   47       -0.000  -0.000   0.000  -0.000
   48       -0.000  -0.000   0.000  -0.000
   49        0.000   0.000   0.000   0.000
   50       -0.000   0.000   0.000   0.000
   51       -0.000   0.000   0.000   0.000
   52        0.000   0.000   0.000   0.000
   53        0.000   0.000   0.000   0.000
   54       -0.000  -0.000   0.000  -0.000
   55       -0.000  -0.000   0.000  -0.000
   56       -0.000  -0.000   0.000  -0.000
   57        0.000   0.000   0.000   0.000
   58        0.000  -0.000   0.000  -0.000
   59       -0.000  -0.000   0.000  -0.000
   60       -0.000  -0.000   0.000  -0.000
   61        0.000  -0.000   0.000  -0.000
   62       -0.000  -0.000   0.000  -0.000
   63       -0.000  -0.000   0.000  -0.000
   64        0.000   0.000   0.000   0.000
   65       -0.000  -0.000   0.000  -0.000
   66        0.000   0.000   0.000   0.000
   67       -0.000   0.000   0.000   0.000
   68        0.000   0.000   0.000   0.000
   69       -0.000  -0.000   0.000  -0.000
   70       -0.000  -0.000   0.000  -0.000
   71       -0.000   0.000   0.000   0.000
   72       -0.000  -0.000   0.000  -0.000
   73       -0.000  -0.000   0.000  -0.000
   74        0.000  -0.000   0.000  -0.000
   75       -0.000  -0.000   0.000  -0.000
   76       -0.000  -0.000   0.000  -0.000
   77       -0.000  -0.000   0.000  -0.000
   78       -0.000  -0.000   0.000  -0.000
   79       -0.000  -0.000   0.000  -0.000
   80       -0.000  -0.000   0.000  -0.000
   81       -0.000  -0.000   0.000  -0.000
   82       -0.000  -0.000   0.000  -0.000
   83       -0.000  -0.000   0.000  -0.000
   84        0.000   0.000   0.000   0.000
   85        0.000   0.000   0.000   0.000
   86        0.000   0.000   0.000   0.000
   87        0.000   0.000   0.000   0.000
   88        0.000   0.000   0.000   0.000
   89        0.000   0.000   0.000   0.000
   90        0.000   0.000   0.000   0.000
   91        0.000   0.000   0.000   0.000
   92        0.000   0.000   0.000   0.000
   93        0.000   0.000   0.000   0.000
   94        0.000   0.000   0.000   0.000
   95        0.000   0.000   0.000   0.000
   96        0.000   0.000   0.000   0.000
   97        0.000   0.000   0.000   0.000
   98        0.000   0.000   0.000   0.000
   99        0.000   0.000   0.000   0.000
  100       -0.000  -0.000   0.000  -0.000
  101        0.000   0.000   0.000   0.000
  102        0.000   0.000   0.000   0.000
  103       -0.000   0.000   0.000   0.000
  104        0.000   0.000   0.000   0.000
  105        0.000   0.000   0.000   0.000
  106       -0.000  -0.000   0.000  -0.000
  107        0.000   0.000   0.000   0.000
  108        0.000   0.000   0.000   0.000
  109       -0.000  -0.000  -0.000  -0.000
  110        0.000  -0.000   0.000   0.000
  111       -0.000  -0.000   0.000   0.000
  112        0.000   0.000   0.000   0.000
  113        0.000   0.000   0.000   0.000
  114       -0.000  -0.000   0.000  -0.000
--------------------------------------------------
tot         -0.000   0.000   0.000  -0.000
 

 total amount of memory used by VASP MPI-rank0   214442. kBytes
=======================================================================

   base      :      30000. kBytes
   nonlr-proj:      18740. kBytes
   fftplans  :      63994. kBytes
   grid      :      62827. kBytes
   one-center:        902. kBytes
   wavefun   :      37979. kBytes
 
  
  
 General timing and accounting informations for this job:
 ========================================================
  
                  Total CPU time used (sec):     1771.706
                            User time (sec):     1715.334
                          System time (sec):       56.372
                         Elapsed time (sec):     1780.707
  
                   Maximum memory used (kb):      321568.
                   Average memory used (kb):           0.
  
                          Minor page faults:      5193330
                          Major page faults:            3
                 Voluntary context switches:         2451
