>>>  VASP 5.4.4 with BEEF-vdw and vtst
--------------------------------------------------------
>>>  Job information
     SLURM_JOBID=8768196
     SLURM_JOB_NODELIST=cpn-u22-24
     SLURM_NNODES=1
     SLURMTMPDIR=/scratch/8768196
     working directory = /projects/academic/ericwalk/ruthbell/Ads_Ag-SSZ13/SULPHURS/COS-S/vtst
--------------------------------------------------------
>>>  Module information
--------------------------------------------------------
>>>  Running Configuration
NPROCS=16
--------------------------------------------------------
>>>  Job started at Wed Jun 29 14:16:21 EDT 2022
--------------------------------------------------------
 running on   16 total cores
 distrk:  each k-point on   16 cores,    1 groups
 distr:  one band on    4 cores,    4 groups
 using from now: INCAR     
 vasp.5.4.4.18Apr17-6-g9f103f2a35 (build Dec 31 2018 11:41:54) complex          
  
 POSCAR found type information on POSCAR  O  Si Al Ag S  C 
 POSCAR found :  6 types and     114 ions
 scaLAPACK will be used
 LDA part: xc-table for Pade appr. of Perdew
 POSCAR found type information on POSCAR  O  Si Al Ag S  C 
 POSCAR found :  6 types and     114 ions
 POSCAR, INCAR and KPOINTS ok, starting setup
 FFT: planning ...
 WAVECAR not read
 entering main loop
       N       E                     dE             d eps       ncg     rms          rms(c)
DAV:   1     0.437701573236E+04    0.43770E+04   -0.25983E+05  1800   0.103E+03
DAV:   2    -0.428651237020E+03   -0.48057E+04   -0.46261E+04  2096   0.295E+02
DAV:   3    -0.945674467248E+03   -0.51702E+03   -0.51336E+03  2104   0.102E+02
DAV:   4    -0.956093400165E+03   -0.10419E+02   -0.10379E+02  2160   0.158E+01
DAV:   5    -0.956357618653E+03   -0.26422E+00   -0.26387E+00  2128   0.233E+00    0.868E+01
DAV:   6    -0.605003781901E+03    0.35135E+03   -0.71461E+02  2016   0.389E+01    0.281E+01
DAV:   7    -0.694137860580E+03   -0.89134E+02   -0.83237E+01  2064   0.124E+01    0.192E+01
DAV:   8    -0.763645706620E+03   -0.69508E+02   -0.30247E+01  2040   0.787E+00    0.110E+01
DAV:   9    -0.840637729881E+03   -0.76992E+02   -0.57533E+01  2016   0.892E+00    0.490E+00
DAV:  10    -0.854519154811E+03   -0.13881E+02   -0.80497E+00  2096   0.361E+00    0.352E+00
DAV:  11    -0.871576283588E+03   -0.17057E+02   -0.12399E+01  1952   0.417E+00    0.169E+00
DAV:  12    -0.873482520909E+03   -0.19062E+01   -0.10590E+00  2024   0.135E+00    0.914E-01
DAV:  13    -0.874450348105E+03   -0.96783E+00   -0.41194E-01  1912   0.872E-01    0.428E-01
DAV:  14    -0.874610867512E+03   -0.16052E+00   -0.63577E-02  1928   0.348E-01    0.254E-01
DAV:  15    -0.874629280396E+03   -0.18413E-01   -0.14161E-02  2048   0.247E-01    0.136E-01
DAV:  16    -0.874634291650E+03   -0.50113E-02   -0.46210E-03  2056   0.142E-01    0.964E-02
DAV:  17    -0.874638994298E+03   -0.47026E-02   -0.20673E-03  2064   0.100E-01    0.397E-02
DAV:  18    -0.874642862314E+03   -0.38680E-02   -0.11552E-03  2000   0.703E-02    0.439E-02
DAV:  19    -0.874643370074E+03   -0.50776E-03   -0.31849E-04  2072   0.408E-02    0.244E-02
DAV:  20    -0.874643757622E+03   -0.38755E-03   -0.23376E-04  2088   0.336E-02    0.125E-02
DAV:  21    -0.874644128062E+03   -0.37044E-03   -0.96666E-05  2016   0.215E-02    0.124E-02
DAV:  22    -0.874644281048E+03   -0.15299E-03   -0.56655E-05  2024   0.172E-02    0.491E-03
DAV:  23    -0.874644372588E+03   -0.91540E-04   -0.38274E-05  2064   0.128E-02    0.365E-03
DAV:  24    -0.874644424977E+03   -0.52389E-04   -0.15500E-05  2056   0.796E-03    0.283E-03
DAV:  25    -0.874644450843E+03   -0.25866E-04   -0.62551E-06  2080   0.475E-03    0.153E-03
DAV:  26    -0.874644468796E+03   -0.17953E-04   -0.39409E-06  2024   0.347E-03    0.143E-03
DAV:  27    -0.874644472337E+03   -0.35408E-05   -0.17984E-06  2096   0.233E-03    0.125E-03
DAV:  28    -0.874644472755E+03   -0.41805E-06   -0.69249E-07  2080   0.147E-03    0.119E-03
DAV:  29    -0.874644472703E+03    0.51819E-07   -0.36597E-07  2008   0.104E-03    0.118E-03
DAV:  30    -0.874644472724E+03   -0.20940E-07   -0.11510E-07  2024   0.576E-04    0.116E-03
DAV:  31    -0.874644472743E+03   -0.18277E-07   -0.51986E-08  2016   0.382E-04    0.116E-03
DAV:  32    -0.874644472754E+03   -0.11802E-07   -0.14382E-08  1848   0.231E-04    0.116E-03
DAV:  33    -0.874644472763E+03   -0.90949E-08   -0.66781E-09  1856   0.150E-04
   1 F= -.87464447E+03 E0= -.87464447E+03  d E =-.874644E+03  mag=    -0.0000
quench:  g(F)=  0.000E+00 g(S)=  0.000E+00 dE (1.order)= 0.000E+00
 bond charge predicted
       N       E                     dE             d eps       ncg     rms          rms(c)
DAV:   1    -0.874644440602E+03    0.32153E-04   -0.54140E-03  1824   0.624E-02    0.133E-02
DAV:   2    -0.874644445888E+03   -0.52862E-05   -0.79997E-05  1976   0.617E-03    0.774E-03
DAV:   3    -0.874644444906E+03    0.98205E-06   -0.17983E-06  2024   0.157E-03    0.359E-03
DAV:   4    -0.874644444804E+03    0.10150E-06   -0.70447E-07  2080   0.112E-03    0.137E-03
DAV:   5    -0.874644444834E+03   -0.30028E-07   -0.83460E-08  2080   0.405E-04    0.122E-03
DAV:   6    -0.874644444843E+03   -0.89713E-08   -0.82788E-09  1960   0.230E-04
   2 F= -.87464444E+03 E0= -.87464444E+03  d E =0.279200E-04  mag=    -0.0000
quench:  g(F)=  0.000E+00 g(S)=  0.000E+00 dE (1.order)= 0.000E+00
 bond charge predicted
       N       E                     dE             d eps       ncg     rms          rms(c)
DAV:   1    -0.874644451694E+03   -0.68598E-05   -0.10884E-02  1824   0.875E-02    0.244E-02
DAV:   2    -0.874644464441E+03   -0.12747E-04   -0.20830E-04  1968   0.978E-03    0.130E-02
DAV:   3    -0.874644461752E+03    0.26894E-05   -0.56470E-06  2160   0.307E-03    0.582E-03
DAV:   4    -0.874644461588E+03    0.16449E-06   -0.23828E-06  2256   0.201E-03    0.183E-03
DAV:   5    -0.874644461528E+03    0.59372E-07   -0.19188E-07  2048   0.667E-04    0.139E-03
DAV:   6    -0.874644461484E+03    0.43772E-07   -0.33687E-08  2064   0.450E-04    0.118E-03
DAV:   7    -0.874644461475E+03    0.97789E-08   -0.14557E-08  1728   0.273E-04
   3 F= -.87464446E+03 E0= -.87464446E+03  d E =-.166313E-04  mag=    -0.0000
quench:  g(F)=  0.000E+00 g(S)=  0.000E+00 dE (1.order)= 0.000E+00
 bond charge predicted
       N       E                     dE             d eps       ncg     rms          rms(c)
DAV:   1    -0.874644474190E+03   -0.12705E-04   -0.10851E-02  1792   0.875E-02    0.225E-02
DAV:   2    -0.874644487537E+03   -0.13348E-04   -0.20874E-04  1984   0.975E-03    0.126E-02
DAV:   3    -0.874644484478E+03    0.30596E-05   -0.48425E-06  2064   0.272E-03    0.603E-03
DAV:   4    -0.874644483951E+03    0.52690E-06   -0.23284E-06  2080   0.201E-03    0.177E-03
DAV:   5    -0.874644483995E+03   -0.43801E-07   -0.25938E-07  1920   0.730E-04    0.135E-03
DAV:   6    -0.874644484031E+03   -0.35936E-07   -0.86498E-08  1832   0.579E-04    0.118E-03
DAV:   7    -0.874644484025E+03    0.58935E-08   -0.85293E-08  1752   0.494E-04
   4 F= -.87464448E+03 E0= -.87464448E+03  d E =-.225500E-04  mag=    -0.0000
quench:  g(F)=  0.000E+00 g(S)=  0.000E+00 dE (1.order)= 0.000E+00
 bond charge predicted
       N       E                     dE             d eps       ncg     rms          rms(c)
DAV:   1    -0.874644460494E+03    0.23537E-04   -0.62642E-03  1760   0.684E-02    0.152E-02
DAV:   2    -0.874644470328E+03   -0.98344E-05   -0.13888E-04  1976   0.920E-03    0.842E-03
DAV:   3    -0.874644469689E+03    0.63911E-06   -0.32555E-06  2080   0.235E-03    0.466E-03
DAV:   4    -0.874644469820E+03   -0.13144E-06   -0.11010E-06  1792   0.124E-03    0.165E-03
DAV:   5    -0.874644469890E+03   -0.69129E-07   -0.28639E-07  1792   0.822E-04    0.125E-03
DAV:   6    -0.874644469888E+03    0.10987E-08   -0.16754E-07  1792   0.630E-04    0.118E-03
DAV:   7    -0.874644469922E+03   -0.33593E-07   -0.22244E-07  1760   0.708E-04    0.116E-03
DAV:   8    -0.874644469862E+03    0.59670E-07   -0.11699E-07  1760   0.504E-04    0.115E-03
DAV:   9    -0.874644469860E+03    0.27576E-08   -0.90500E-09  1600   0.152E-04
   5 F= -.87464447E+03 E0= -.87464447E+03  d E =0.141651E-04  mag=    -0.0000
quench:  g(F)=  0.000E+00 g(S)=  0.000E+00 dE (1.order)= 0.000E+00
 bond charge predicted
       N       E                     dE             d eps       ncg     rms          rms(c)
DAV:   1    -0.874644463229E+03    0.66331E-05   -0.17294E-03  1760   0.299E-02    0.147E-02
DAV:   2    -0.874644461456E+03    0.17728E-05   -0.70038E-05  2000   0.865E-03    0.614E-03
DAV:   3    -0.874644460748E+03    0.70863E-06   -0.46562E-06  2080   0.264E-03    0.338E-03
DAV:   4    -0.874644460349E+03    0.39927E-06   -0.80065E-07  2032   0.867E-04    0.162E-03
DAV:   5    -0.874644460263E+03    0.85332E-07   -0.79436E-08  2096   0.499E-04    0.124E-03
DAV:   6    -0.874644460254E+03    0.94296E-08   -0.17626E-08  1944   0.229E-04
   6 F= -.87464446E+03 E0= -.87464446E+03  d E =0.960581E-05  mag=    -0.0000
quench:  g(F)=  0.000E+00 g(S)=  0.000E+00 dE (1.order)= 0.000E+00
 bond charge predicted
       N       E                     dE             d eps       ncg     rms          rms(c)
DAV:   1    -0.874644469985E+03   -0.97222E-05   -0.17629E-03  1760   0.305E-02    0.136E-02
DAV:   2    -0.874644469792E+03    0.19313E-06   -0.69578E-05  2000   0.858E-03    0.581E-03
DAV:   3    -0.874644469791E+03    0.11569E-08   -0.42359E-06  2128   0.236E-03    0.331E-03
DAV:   4    -0.874644469854E+03   -0.62762E-07   -0.74553E-07  1984   0.867E-04    0.159E-03
DAV:   5    -0.874644469946E+03   -0.92259E-07   -0.85026E-08  2096   0.457E-04    0.123E-03
DAV:   6    -0.874644469954E+03   -0.73633E-08   -0.13931E-08  1912   0.201E-04
   7 F= -.87464447E+03 E0= -.87464447E+03  d E =-.969975E-05  mag=    -0.0000
quench:  g(F)=  0.000E+00 g(S)=  0.000E+00 dE (1.order)= 0.000E+00
 bond charge predicted
       N       E                     dE             d eps       ncg     rms          rms(c)
DAV:   1    -0.874644447226E+03    0.22720E-04   -0.33751E-03  1760   0.420E-02    0.171E-02
DAV:   2    -0.874644447885E+03   -0.65933E-06   -0.83738E-05  1968   0.101E-02    0.104E-02
DAV:   3    -0.874644446162E+03    0.17230E-05   -0.42743E-06  2128   0.236E-03    0.536E-03
DAV:   4    -0.874644445291E+03    0.87117E-06   -0.14019E-06  2080   0.159E-03    0.161E-03
DAV:   5    -0.874644445204E+03    0.86911E-07   -0.18943E-07  2128   0.555E-04    0.132E-03
DAV:   6    -0.874644445170E+03    0.34401E-07   -0.33298E-08  1904   0.282E-04    0.118E-03
DAV:   7    -0.874644445140E+03    0.30137E-07   -0.76558E-09  1936   0.255E-04    0.116E-03
DAV:   8    -0.874644445124E+03    0.16007E-07   -0.55973E-09  1728   0.252E-04    0.116E-03
DAV:   9    -0.874644445123E+03    0.32014E-09   -0.48388E-09  1760   0.152E-04
   8 F= -.87464445E+03 E0= -.87464445E+03  d E =0.248303E-04  mag=    -0.0000
quench:  g(F)=  0.000E+00 g(S)=  0.000E+00 dE (1.order)= 0.000E+00
 bond charge predicted
       N       E                     dE             d eps       ncg     rms          rms(c)
DAV:   1    -0.874644454153E+03   -0.90298E-05   -0.46117E-03  1760   0.453E-02    0.254E-02
DAV:   2    -0.874644450597E+03    0.35565E-05   -0.10279E-04  2016   0.102E-02    0.170E-02
DAV:   3    -0.874644446688E+03    0.39090E-05   -0.86696E-06  2208   0.333E-03    0.707E-03
DAV:   4    -0.874644445786E+03    0.90199E-06   -0.22129E-06  2128   0.240E-03    0.185E-03
DAV:   5    -0.874644445798E+03   -0.12114E-07   -0.36896E-07  2176   0.817E-04    0.152E-03
DAV:   6    -0.874644445795E+03    0.28740E-08   -0.82600E-08  1936   0.468E-04
   9 F= -.87464445E+03 E0= -.87464445E+03  d E =-.671855E-06  mag=    -0.0000
quench:  g(F)=  0.000E+00 g(S)=  0.000E+00 dE (1.order)= 0.000E+00
 bond charge predicted
       N       E                     dE             d eps       ncg     rms          rms(c)
DAV:   1    -0.874644476895E+03   -0.31097E-04   -0.45174E-03  1776   0.449E-02    0.232E-02
DAV:   2    -0.874644476005E+03    0.88954E-06   -0.95151E-05  1968   0.954E-03    0.157E-02
DAV:   3    -0.874644472266E+03    0.37389E-05   -0.67284E-06  2176   0.291E-03    0.668E-03
DAV:   4    -0.874644471253E+03    0.10129E-05   -0.20109E-06  2120   0.216E-03    0.174E-03
DAV:   5    -0.874644471209E+03    0.44092E-07   -0.31148E-07  2128   0.689E-04    0.146E-03
DAV:   6    -0.874644471160E+03    0.49520E-07   -0.64652E-08  2016   0.365E-04    0.120E-03
DAV:   7    -0.874644471135E+03    0.24491E-07   -0.11476E-08  1928   0.324E-04    0.117E-03
DAV:   8    -0.874644471121E+03    0.13890E-07   -0.98147E-09  1952   0.356E-04    0.116E-03
DAV:   9    -0.874644471119E+03    0.26484E-08   -0.65015E-09  1968   0.181E-04
  10 F= -.87464447E+03 E0= -.87464447E+03  d E =-.253236E-04  mag=    -0.0000
quench:  g(F)=  0.000E+00 g(S)=  0.000E+00 dE (1.order)= 0.000E+00
--------------------------------------------------------
>>>  Job finished at Wed Jun 29 15:13:33 EDT 2022
