 vasp.5.4.4.18Apr17-6-g9f103f2a35 (build Dec 31 2018 11:41:54) complex          
  
 executed on             LinuxIFC date 2022.06.29  14:16:22
 running on   16 total cores
 distrk:  each k-point on   16 cores,    1 groups
 distr:  one band on NCORES_PER_BAND=   4 cores,    4 groups


--------------------------------------------------------------------------------------------------------


 INCAR:
 POTCAR:   PAW_PBE O 08Apr2002                    
 POTCAR:   PAW_PBE Si 05Jan2001                   
 POTCAR:   PAW_PBE Al 04Jan2001                   
 POTCAR:   PAW_PBE Ag 06Sep2000                   
 POTCAR:    PAW_PBE S 17Jan2003                   
 POTCAR:   PAW_PBE C 08Apr2002                    
 POTCAR:   PAW_PBE O 08Apr2002                    
   VRHFIN =O: s2p4                                                              
   LEXCH  = PE                                                                  
   EATOM  =   432.3788 eV,   31.7789 Ry                                         
                                                                                
   TITEL  = PAW_PBE O 08Apr2002                                                 
   LULTRA =        F    use ultrasoft PP ?                                      
   IUNSCR =        0    unscreen: 0-lin 1-nonlin 2-no                           
   RPACOR =     .000    partial core radius                                     
   POMASS =   16.000; ZVAL   =    6.000    mass and valenz                      
   RCORE  =    1.520    outmost cutoff radius                                   
   RWIGS  =    1.550; RWIGS  =     .820    wigner-seitz radius (au A)           
   ENMAX  =  400.000; ENMIN  =  300.000 eV                                      
   ICORE  =        2    local potential                                         
   LCOR   =        T    correct aug charges                                     
   LPAW   =        T    paw PP                                                  
   EAUG   =  605.392                                                            
   DEXC   =     .000                                                            
   RMAX   =    2.264    core radius for proj-oper                               
   RAUG   =    1.300    factor for augmentation sphere                          
   RDEP   =    1.550    radius for radial grids                                 
   QCUT   =   -5.520; QGAM   =   11.041    optimization parameters              
                                                                                
   Description                                                                  
     l     E      TYP  RCUT    TYP  RCUT                                        
     0   .000     23  1.200                                                     
     0  -.700     23  1.200                                                     
     1   .000     23  1.520                                                     
     1   .600     23  1.520                                                     
     2   .000      7  1.500                                                     
  local pseudopotential read in
  atomic valenz-charges read in
  non local Contribution for L=           0  read in
    real space projection operators read in
  non local Contribution for L=           0  read in
    real space projection operators read in
  non local Contribution for L=           1  read in
    real space projection operators read in
  non local Contribution for L=           1  read in
    real space projection operators read in
    PAW grid and wavefunctions read in
 
   number of l-projection  operators is LMAX  =           4
   number of lm-projection operators is LMMAX =           8
 
 POTCAR:   PAW_PBE Si 05Jan2001                   
   VRHFIN =Si: s2p2                                                             
   LEXCH  = PE                                                                  
   EATOM  =   103.0669 eV,    7.5752 Ry                                         
                                                                                
   TITEL  = PAW_PBE Si 05Jan2001                                                
   LULTRA =        F    use ultrasoft PP ?                                      
   IUNSCR =        1    unscreen: 0-lin 1-nonlin 2-no                           
   RPACOR =    1.500    partial core radius                                     
   POMASS =   28.085; ZVAL   =    4.000    mass and valenz                      
   RCORE  =    1.900    outmost cutoff radius                                   
   RWIGS  =    2.480; RWIGS  =    1.312    wigner-seitz radius (au A)           
   ENMAX  =  245.345; ENMIN  =  184.009 eV                                      
   ICORE  =        2    local potential                                         
   LCOR   =        T    correct aug charges                                     
   LPAW   =        T    paw PP                                                  
   EAUG   =  322.069                                                            
   DEXC   =    -.007                                                            
   RMAX   =    2.944    core radius for proj-oper                               
   RAUG   =    1.300    factor for augmentation sphere                          
   RDEP   =    1.993    radius for radial grids                                 
   QCUT   =   -4.246; QGAM   =    8.493    optimization parameters              
                                                                                
   Description                                                                  
     l     E      TYP  RCUT    TYP  RCUT                                        
     0   .000     23  1.900                                                     
     0   .000     23  1.900                                                     
     1   .000     23  1.900                                                     
     1   .000     23  1.900                                                     
     2   .000      7  1.900                                                     
  local pseudopotential read in
  partial core-charges read in
  atomic valenz-charges read in
  non local Contribution for L=           0  read in
    real space projection operators read in
  non local Contribution for L=           0  read in
    real space projection operators read in
  non local Contribution for L=           1  read in
    real space projection operators read in
  non local Contribution for L=           1  read in
    real space projection operators read in
    PAW grid and wavefunctions read in
 
   number of l-projection  operators is LMAX  =           4
   number of lm-projection operators is LMMAX =           8
 
 POTCAR:   PAW_PBE Al 04Jan2001                   
   VRHFIN =Al: s2p1                                                             
   LEXCH  = PE                                                                  
   EATOM  =    53.5387 eV,    3.9350 Ry                                         
                                                                                
   TITEL  = PAW_PBE Al 04Jan2001                                                
   LULTRA =        F    use ultrasoft PP ?                                      
   IUNSCR =        1    unscreen: 0-lin 1-nonlin 2-no                           
   RPACOR =    1.500    partial core radius                                     
   POMASS =   26.982; ZVAL   =    3.000    mass and valenz                      
   RCORE  =    1.900    outmost cutoff radius                                   
   RWIGS  =    2.650; RWIGS  =    1.402    wigner-seitz radius (au A)           
   ENMAX  =  240.300; ENMIN  =  180.225 eV                                      
   ICORE  =        2    local potential                                         
   LCOR   =        T    correct aug charges                                     
   LPAW   =        T    paw PP                                                  
   EAUG   =  291.052                                                            
   DEXC   =    -.041                                                            
   RMAX   =    2.974    core radius for proj-oper                               
   RAUG   =    1.300    factor for augmentation sphere                          
   RDEP   =    1.966    radius for radial grids                                 
   QCUT   =   -4.203; QGAM   =    8.405    optimization parameters              
                                                                                
   Description                                                                  
     l     E      TYP  RCUT    TYP  RCUT                                        
     0   .000     23  1.900                                                     
     0   .000     23  1.900                                                     
     1   .000     23  1.900                                                     
     1  1.000     23  1.900                                                     
     2   .000      7  1.900                                                     
  local pseudopotential read in
  partial core-charges read in
  atomic valenz-charges read in
  non local Contribution for L=           0  read in
    real space projection operators read in
  non local Contribution for L=           0  read in
    real space projection operators read in
  non local Contribution for L=           1  read in
    real space projection operators read in
  non local Contribution for L=           1  read in
    real space projection operators read in
    PAW grid and wavefunctions read in
 
   number of l-projection  operators is LMAX  =           4
   number of lm-projection operators is LMMAX =           8
 
 POTCAR:   PAW_PBE Ag 06Sep2000                   
   VRHFIN =Ag : s1 d10                                                          
   LEXCH  = PE                                                                  
   EATOM  =  1037.4134 eV,   76.2477 Ry                                         
                                                                                
   TITEL  = PAW_PBE Ag 06Sep2000                                                
   LULTRA =        F    use ultrasoft PP ?                                      
   IUNSCR =        1    unscreen: 0-lin 1-nonlin 2-no                           
   RPACOR =    2.000    partial core radius                                     
   POMASS =  107.868; ZVAL   =   11.000    mass and valenz                      
   RCORE  =    2.400    outmost cutoff radius                                   
   RWIGS  =    2.840; RWIGS  =    1.503    wigner-seitz radius (au A)           
   ENMAX  =  249.846; ENMIN  =  187.385 eV                                      
   RCLOC  =    1.962    cutoff for local pot                                    
   LCOR   =        T    correct aug charges                                     
   LPAW   =        T    paw PP                                                  
   EAUG   =  412.496                                                            
   DEXC   =    -.047                                                            
   RMAX   =    2.917    core radius for proj-oper                               
   RAUG   =    1.300    factor for augmentation sphere                          
   RDEP   =    2.416    radius for radial grids                                 
   QCUT   =   -4.285; QGAM   =    8.570    optimization parameters              
                                                                                
   Description                                                                  
     l     E      TYP  RCUT    TYP  RCUT                                        
     2   .000     23  2.400                                                     
     2   .000     23  2.400                                                     
     0   .000     23  2.400                                                     
     0   .000     23  2.400                                                     
     1  -.200     23  2.400                                                     
     1  1.500     23  2.400                                                     
     3   .000      7   .000                                                     
  local pseudopotential read in
  partial core-charges read in
  atomic valenz-charges read in
  non local Contribution for L=           2  read in
    real space projection operators read in
  non local Contribution for L=           2  read in
    real space projection operators read in
  non local Contribution for L=           0  read in
    real space projection operators read in
  non local Contribution for L=           0  read in
    real space projection operators read in
  non local Contribution for L=           1  read in
    real space projection operators read in
  non local Contribution for L=           1  read in
    real space projection operators read in
    PAW grid and wavefunctions read in
 
   number of l-projection  operators is LMAX  =           6
   number of lm-projection operators is LMMAX =          18
 
 POTCAR:    PAW_PBE S 17Jan2003                   
   VRHFIN =S : s2p4                                                             
   LEXCH  = PE                                                                  
   EATOM  =   276.8230 eV,   20.3459 Ry                                         
                                                                                
   TITEL  = PAW_PBE S 17Jan2003                                                 
   LULTRA =        F    use ultrasoft PP ?                                      
   IUNSCR =        1    unscreen: 0-lin 1-nonlin 2-no                           
   RPACOR =    1.500    partial core radius                                     
   POMASS =   32.066; ZVAL   =    6.000    mass and valenz                      
   RCORE  =    1.900    outmost cutoff radius                                   
   RWIGS  =    2.200; RWIGS  =    1.164    wigner-seitz radius (au A)           
   ENMAX  =  280.000; ENMIN  =  194.016 eV                                      
   ICORE  =        2    local potential                                         
   LCOR   =        T    correct aug charges                                     
   LPAW   =        T    paw PP                                                  
   EAUG   =  335.092                                                            
   DEXC   =     .000                                                            
   RMAX   =    2.867    core radius for proj-oper                               
   RAUG   =    1.300    factor for augmentation sphere                          
   RDEP   =    1.954    radius for radial grids                                 
   QCUT   =   -4.360; QGAM   =    8.721    optimization parameters              
                                                                                
   Description                                                                  
     l     E      TYP  RCUT    TYP  RCUT                                        
     0   .000     23  1.900                                                     
     0   .000     23  1.900                                                     
     1   .000     23  1.900                                                     
     1   .000     23  1.900                                                     
     2   .000     23  1.900                                                     
  local pseudopotential read in
  partial core-charges read in
  atomic valenz-charges read in
  non local Contribution for L=           0  read in
    real space projection operators read in
  non local Contribution for L=           0  read in
    real space projection operators read in
  non local Contribution for L=           1  read in
    real space projection operators read in
  non local Contribution for L=           1  read in
    real space projection operators read in
    PAW grid and wavefunctions read in
 
   number of l-projection  operators is LMAX  =           4
   number of lm-projection operators is LMMAX =           8
 
 POTCAR:   PAW_PBE C 08Apr2002                    
   VRHFIN =C: s2p2                                                              
   LEXCH  = PE                                                                  
   EATOM  =   147.1560 eV,   10.8157 Ry                                         
                                                                                
   TITEL  = PAW_PBE C 08Apr2002                                                 
   LULTRA =        F    use ultrasoft PP ?                                      
   IUNSCR =        0    unscreen: 0-lin 1-nonlin 2-no                           
   RPACOR =     .000    partial core radius                                     
   POMASS =   12.011; ZVAL   =    4.000    mass and valenz                      
   RCORE  =    1.500    outmost cutoff radius                                   
   RWIGS  =    1.630; RWIGS  =     .863    wigner-seitz radius (au A)           
   ENMAX  =  400.000; ENMIN  =  300.000 eV                                      
   ICORE  =        2    local potential                                         
   LCOR   =        T    correct aug charges                                     
   LPAW   =        T    paw PP                                                  
   EAUG   =  644.873                                                            
   DEXC   =     .000                                                            
   RMAX   =    2.266    core radius for proj-oper                               
   RAUG   =    1.300    factor for augmentation sphere                          
   RDEP   =    1.501    radius for radial grids                                 
   RDEPT  =    1.300    core radius for aug-charge                              
   QCUT   =   -5.516; QGAM   =   11.032    optimization parameters              
                                                                                
   Description                                                                  
     l     E      TYP  RCUT    TYP  RCUT                                        
     0   .000     23  1.200                                                     
     0   .000     23  1.200                                                     
     1   .000     23  1.500                                                     
     1  2.500     23  1.500                                                     
     2   .000      7  1.500                                                     
  local pseudopotential read in
  atomic valenz-charges read in
  non local Contribution for L=           0  read in
    real space projection operators read in
  non local Contribution for L=           0  read in
    real space projection operators read in
  non local Contribution for L=           1  read in
    real space projection operators read in
  non local Contribution for L=           1  read in
    real space projection operators read in
    PAW grid and wavefunctions read in
 
   number of l-projection  operators is LMAX  =           4
   number of lm-projection operators is LMMAX =           8
 
 Optimization of the real space projectors (new method)

 maximal supplied QI-value         = 24.76
 optimisation between [QCUT,QGAM] = [ 10.15, 20.30] = [ 28.85,115.39] Ry 
 Optimized for a Real-space Cutoff    1.51 Angstroem

   l    n(q)    QCUT    max X(q) W(low)/X(q) W(high)/X(q)  e(spline) 
   0      9    10.150     4.192    0.32E-04    0.13E-04    0.13E-06
   0      9    10.150     8.473    0.18E-03    0.20E-03    0.43E-06
   1      9    10.150     2.474    0.32E-04    0.33E-04    0.64E-07
   1      9    10.150     3.912    0.13E-03    0.16E-03    0.33E-06
 Optimization of the real space projectors (new method)

 maximal supplied QI-value         = 19.84
 optimisation between [QCUT,QGAM] = [ 10.12, 20.44] = [ 28.68,116.96] Ry 
 Optimized for a Real-space Cutoff    1.38 Angstroem

   l    n(q)    QCUT    max X(q) W(low)/X(q) W(high)/X(q)  e(spline) 
   0      8    10.119     8.708    0.16E-04    0.67E-05    0.60E-08
   0      8    10.119   106.241    0.56E-04    0.11E-03    0.54E-07
   1      8    10.119     5.901    0.16E-04    0.16E-05    0.22E-07
   1      8    10.119    73.241    0.22E-03    0.17E-03    0.18E-06
 Optimization of the real space projectors (new method)

 maximal supplied QI-value         = 19.84
 optimisation between [QCUT,QGAM] = [ 10.12, 20.44] = [ 28.68,116.96] Ry 
 Optimized for a Real-space Cutoff    1.26 Angstroem

   l    n(q)    QCUT    max X(q) W(low)/X(q) W(high)/X(q)  e(spline) 
   0      8    10.119    13.410    0.28E-04    0.17E-04    0.51E-08
   0      8    10.119   140.052    0.10E-03    0.16E-03    0.42E-07
   1      7    10.119     9.624    0.38E-04    0.42E-05    0.15E-07
   1      7    10.119    53.353    0.23E-03    0.17E-03    0.13E-06
 Optimization of the real space projectors (new method)

 maximal supplied QI-value         = 15.68
 optimisation between [QCUT,QGAM] = [ 10.20, 20.39] = [ 29.11,116.42] Ry 
 Optimized for a Real-space Cutoff    1.51 Angstroem

   l    n(q)    QCUT    max X(q) W(low)/X(q) W(high)/X(q)  e(spline) 
   2      8    10.195     3.831    0.11E-04    0.20E-04    0.48E-07
   2      8    10.195    20.184    0.23E-03    0.42E-03    0.20E-06
   0      9    10.195    16.770    0.13E-04    0.90E-05    0.63E-08
   0      9    10.195    80.708    0.19E-03    0.15E-03    0.44E-07
   1      9    10.195     6.696    0.12E-04    0.45E-04    0.30E-07
   1      9    10.195     8.973    0.12E-03    0.15E-03    0.13E-06
 Optimization of the real space projectors (new method)

 maximal supplied QI-value         = 19.84
 optimisation between [QCUT,QGAM] = [ 10.12, 20.44] = [ 28.68,116.96] Ry 
 Optimized for a Real-space Cutoff    1.42 Angstroem

   l    n(q)    QCUT    max X(q) W(low)/X(q) W(high)/X(q)  e(spline) 
   0      9    10.119     5.487    0.15E-04    0.47E-05    0.66E-08
   0      9    10.119    85.627    0.51E-04    0.92E-04    0.63E-07
   1      8    10.119     3.530    0.37E-05    0.76E-05    0.28E-07
   1      8    10.119    42.714    0.16E-03    0.16E-03    0.23E-06
 Optimization of the real space projectors (new method)

 maximal supplied QI-value         = 25.13
 optimisation between [QCUT,QGAM] = [ 10.05, 20.36] = [ 28.30,116.06] Ry 
 Optimized for a Real-space Cutoff    1.38 Angstroem

   l    n(q)    QCUT    max X(q) W(low)/X(q) W(high)/X(q)  e(spline) 
   0      8    10.053     5.582    0.33E-04    0.15E-04    0.75E-07
   0      8    10.053    69.432    0.23E-03    0.38E-03    0.25E-06
   1      8    10.053     2.780    0.76E-04    0.11E-03    0.15E-06
   1      8    10.053     4.549    0.19E-03    0.19E-03    0.27E-06
 PAW_PBE O 08Apr2002                    :
 energy of atom  1       EATOM= -432.3788
 kinetic energy error for atom=    0.1156 (will be added to EATOM!!)
 PAW_PBE Si 05Jan2001                   :
 energy of atom  2       EATOM= -103.0669
 kinetic energy error for atom=    0.0012 (will be added to EATOM!!)
 PAW_PBE Al 04Jan2001                   :
 energy of atom  3       EATOM=  -53.5387
 kinetic energy error for atom=    0.0005 (will be added to EATOM!!)
 PAW_PBE Ag 06Sep2000                   :
 energy of atom  4       EATOM=-1037.4134
 kinetic energy error for atom=    0.0091 (will be added to EATOM!!)
  PAW_PBE S 17Jan2003                   :
 energy of atom  5       EATOM= -276.8230
 kinetic energy error for atom=    0.0046 (will be added to EATOM!!)
 PAW_PBE C 08Apr2002                    :
 energy of atom  6       EATOM= -147.1560
 kinetic energy error for atom=    0.0288 (will be added to EATOM!!)
 
 
 POSCAR: O  C                                    
  positions in direct lattice
  velocities in cartesian coordinates
 exchange correlation table for  LEXCH =        8
   RHO(1)=    0.500       N(1)  =     2000
   RHO(2)=  100.500       N(2)  =     4000

 VTST: version 3.2, (02/03/18)

 CHAIN: initializing optimizer
 
 OPT: Using VASP Quick-Min optimizer
 CHAIN: Read ICHAIN            1
 
 POSCAR: O  C                                    
  positions in direct lattice
  velocities in cartesian coordinates
 CHAIN: Running the Dynamical Matrix
 


--------------------------------------------------------------------------------------------------------


 ion  position               nearest neighbor table
   1  0.899  0.098  0.118-  74 1.63  81 1.63
   2  0.105  0.888  0.879-  80 1.63  75 1.63
   3  0.894  0.794  0.129-  84 1.61  76 1.64
   4  0.097  0.197  0.865-  77 1.63  83 1.63
   5  0.197  0.104  0.115-  78 1.62  82 1.63
   6  0.805  0.904  0.880-  79 1.59 107 1.73
   7  0.556  0.427  0.456-  85 1.62  91 1.63
   8  0.764  0.234  0.217-  90 1.59 108 1.73
   9  0.567  0.142  0.470-  95 1.64  86 1.65
  10  0.768  0.540  0.206-  94 1.63  87 1.63
  11  0.864  0.426  0.461-  93 1.62  88 1.64
  12  0.466  0.236  0.182-  89 1.63  92 1.64
  13  0.234  0.775  0.775- 103 1.61  96 1.64
  14  0.425  0.570  0.524-  97 1.66 102 1.67 111 2.55
  15  0.232  0.447  0.771-  98 1.62 106 1.62
  16  0.429  0.852  0.529-  99 1.63 109 1.79 111 2.27
  17  0.530  0.755  0.803- 100 1.63 105 1.64
  18  0.125  0.560  0.533- 104 1.65 101 1.68 111 2.44
  19  0.978  0.316  0.160-  74 1.61  90 1.63
  20  0.025  0.669  0.843- 103 1.62  75 1.63
  21  0.678  0.673  0.172-  94 1.61  76 1.63
  22  0.315  0.316  0.817- 106 1.62  77 1.63
  23  0.319  0.015  0.177-  78 1.61  92 1.63
  24  0.666  0.979  0.826- 105 1.62  79 1.63
  25  0.325  0.986  0.837-  80 1.61  96 1.63
  26  0.678  0.004  0.161-  81 1.60 108 1.74 110 2.53
  27  0.671  0.673  0.813- 100 1.61 107 1.76 112 2.43
  28  0.333  0.323  0.157-  82 1.62  89 1.62
  29  0.018  0.337  0.832-  98 1.61  83 1.62
  30  0.989  0.670  0.172-  87 1.62  84 1.62
  31  0.647  0.641  0.503- 102 1.61  85 1.62
  32  0.343  0.994  0.475-  86 1.59 109 1.71
  33  0.996  0.339  0.497- 104 1.61  88 1.63
  34  0.337  0.351  0.480-  97 1.61  91 1.63
  35  0.986  0.642  0.505- 101 1.62  93 1.62
  36  0.650  0.008  0.514-  99 1.61  95 1.64
  37  0.119  0.243  0.129-  82 1.61  74 1.62
  38  0.886  0.745  0.853-  75 1.62 107 1.78 112 2.30
  39  0.762  0.878  0.111-  81 1.60  76 1.61
  40  0.229  0.108  0.870-  77 1.61  80 1.62
  41  0.113  0.883  0.128-  78 1.61  84 1.61
  42  0.877  0.122  0.859-  83 1.61  79 1.63
  43  0.775  0.557  0.467-  85 1.61  93 1.62
  44  0.536  0.086  0.174-  92 1.62 108 1.79 110 2.32
  45  0.417  0.211  0.467-  91 1.60  86 1.64
  46  0.903  0.453  0.196-  87 1.61  90 1.63
  47  0.785  0.207  0.453-  88 1.60  95 1.63
  48  0.548  0.456  0.194-  89 1.61  94 1.62
  49  0.450  0.896  0.807- 105 1.62  96 1.64
  50  0.210  0.428  0.541-  97 1.62 104 1.62
  51  0.124  0.555  0.801-  98 1.61 103 1.62
  52  0.579  0.788  0.519- 102 1.61  99 1.64
  53  0.450  0.534  0.800- 106 1.62 100 1.63
  54  0.202  0.777  0.544- 101 1.58 109 1.74
  55  0.999  0.258  0.994-  83 1.62  74 1.63
  56  0.991  0.730  0.003-  75 1.62  84 1.63
  57  0.736  0.714  0.999-  76 1.60 107 1.72
  58  0.257  0.267  0.991-  77 1.63  82 1.63
  59  0.268  0.999  0.003-  80 1.63  78 1.64
  60  0.661  0.589  0.333-  85 1.61  94 1.63
  61  0.633  0.050  0.341-  95 1.60 108 1.72
  62  0.441  0.108  0.324-  92 1.61  86 1.63
  63  0.921  0.587  0.335-  93 1.62  87 1.63
  64  0.939  0.345  0.329-  88 1.62  90 1.64
  65  0.407  0.323  0.321-  91 1.62  89 1.63
  66  0.360  0.950  0.666-  96 1.59 109 1.74
  67  0.355  0.409  0.653-  97 1.62 106 1.64
  68  0.058  0.406  0.665- 104 1.62  98 1.63
  69  0.575  0.897  0.666- 105 1.61  99 1.62
  70  0.568  0.659  0.660- 102 1.61 100 1.63
  71  0.055  0.640  0.671- 101 1.64 103 1.64
  72  0.733  0.011  0.993-  79 1.66  81 1.67 110 2.50
  73  0.754  0.282  0.761- 114 1.17
  74  0.997  0.228  0.101-  19 1.61  37 1.62  55 1.63   1 1.63  90 3.10  82 3.10  81 3.13  83 3.14

  75  0.002  0.760  0.896-  56 1.62  38 1.62   2 1.63  20 1.63 103 3.06  84 3.13 107 3.16 112 3.37

  76  0.767  0.763  0.099-  57 1.60  39 1.61  21 1.63   3 1.64  94 3.00 107 3.09  84 3.09
  77  0.224  0.222  0.887-  40 1.61  58 1.63   4 1.63  22 1.63 106 3.06  82 3.11  83 3.13
  78  0.224  0.001  0.106-  41 1.61  23 1.61   5 1.62  59 1.64  92 3.04  80 3.08
  79  0.772  0.000  0.888-   6 1.59  42 1.63  24 1.63  72 1.66 105 3.08  83 3.09  81 3.10 107 3.23

  80  0.231  0.995  0.898-  25 1.61  40 1.62   2 1.63  59 1.63  96 3.07  78 3.08
  81  0.770  0.998  0.098-  26 1.60  39 1.60   1 1.63  72 1.67  79 3.10  74 3.13 110 3.16 108 3.17

  82  0.227  0.234  0.097-  37 1.61  28 1.62   5 1.63  58 1.63  89 3.05  74 3.10  77 3.11
  83  0.998  0.227  0.889-  42 1.61  55 1.62  29 1.62   4 1.63  98 3.06  79 3.09  77 3.13  74 3.14

  84  0.996  0.769  0.107-  41 1.61   3 1.61  30 1.62  56 1.63  87 3.03  76 3.09  75 3.13
  85  0.660  0.553  0.437-  60 1.61  43 1.61   7 1.62  31 1.62 102 3.07  93 3.12  94 3.13  91 3.13

  86  0.441  0.110  0.435-  32 1.59  62 1.63  45 1.64   9 1.65  95 3.03  91 3.04 109 3.07
  87  0.894  0.561  0.227-  46 1.61  30 1.62  63 1.63  10 1.63  84 3.03  90 3.10  93 3.14
  88  0.893  0.327  0.433-  47 1.60  64 1.62  33 1.63  11 1.64 104 3.03  90 3.07  93 3.12
  89  0.439  0.334  0.214-  48 1.61  28 1.62  65 1.63  12 1.63  82 3.05  92 3.06  94 3.12
  90  0.892  0.333  0.225-   8 1.59  19 1.63  46 1.63  64 1.64  88 3.07  74 3.10  87 3.10 108 3.23

  91  0.429  0.327  0.429-  45 1.60  65 1.62   7 1.63  34 1.63  86 3.04  97 3.05  85 3.13
  92  0.441  0.111  0.216-  62 1.61  44 1.62  23 1.63  12 1.64  78 3.04  89 3.06 108 3.07
  93  0.887  0.552  0.440-  63 1.62  43 1.62  35 1.62  11 1.62 101 3.06  88 3.12  85 3.12  87 3.14

  94  0.665  0.564  0.226-  21 1.61  48 1.62  10 1.63  60 1.63  76 3.00  89 3.12  85 3.13
  95  0.657  0.101  0.441-  61 1.60  47 1.63  36 1.64   9 1.64  86 3.03  99 3.04 108 3.12
  96  0.342  0.903  0.767-  66 1.59  25 1.63  13 1.64  49 1.64  80 3.07 105 3.08 109 3.12
  97  0.332  0.437  0.551-  34 1.61  50 1.62  67 1.62  14 1.66  91 3.05 102 3.10 106 3.10
  98  0.108  0.436  0.767-  29 1.61  51 1.61  15 1.62  68 1.63  83 3.06 104 3.07 103 3.08
  99  0.558  0.889  0.557-  36 1.61  69 1.62  16 1.63  52 1.64 102 3.04  95 3.04 109 3.17 111 3.33

 100  0.556  0.657  0.770-  27 1.61  53 1.63  70 1.63  17 1.63 106 3.07 105 3.08 107 3.13
 101  0.093  0.659  0.564-  54 1.58  35 1.62  71 1.64  18 1.68  93 3.06 103 3.07 104 3.14 111 3.27

 102  0.557  0.666  0.552-  70 1.61  31 1.61  52 1.61  14 1.67  99 3.04  85 3.07  97 3.10
 103  0.112  0.663  0.771-  13 1.61  51 1.62  20 1.62  71 1.64  75 3.06 101 3.07  98 3.08
 104  0.095  0.431  0.560-  33 1.61  68 1.62  50 1.62  18 1.65  88 3.03  98 3.07 101 3.14
 105  0.555  0.881  0.774-  69 1.61  24 1.62  49 1.62  17 1.64  96 3.08 100 3.08  79 3.08
 106  0.338  0.426  0.761-  15 1.62  22 1.62  53 1.62  67 1.64  77 3.06 100 3.07  97 3.10
 107  0.774  0.765  0.890-  57 1.72   6 1.73  27 1.76  38 1.78  76 3.09 112 3.11 100 3.13  75 3.16
                            79 3.23
 108  0.657  0.095  0.230-  61 1.72   8 1.73  26 1.74  44 1.79  92 3.07 110 3.10  95 3.12  81 3.17
                            90 3.23
 109  0.332  0.899  0.556-  32 1.71  54 1.74  66 1.74  16 1.79  86 3.07  96 3.12  99 3.17 111 3.24

 110  0.562  0.022  0.036-  44 2.32  72 2.50  26 2.53 108 3.10  81 3.16
 111  0.319  0.672  0.479-  16 2.27  18 2.44  14 2.55 109 3.24 101 3.27  99 3.33
 112  0.783  0.590  0.761-  38 2.30 113 2.42  27 2.43 107 3.11  75 3.37
 113  0.703  0.424  0.667- 114 1.58 112 2.42
 114  0.734  0.345  0.723-  73 1.17 113 1.58
 
  LATTYP: Found a hexagonal cell.
 ALAT       =    13.6750001907
 C/A-ratio  =     1.0798537472
  
  Lattice vectors:
  
 A1 = (  13.6750001907,   0.0000000000,   0.0000000000)
 A2 = (  -6.8375000954,  11.8428975619,   0.0000000000)
 A3 = (   0.0000000000,   0.0000000000,  14.7670001984)


Analysis of symmetry for initial positions (statically):
=====================================================================
 Subroutine PRICEL returns:
 Original cell was already a primitive cell.
 

 Routine SETGRP: Setting up the symmetry group for a 
 hexagonal supercell.


 Subroutine GETGRP returns: Found  1 space group operations
 (whereof  1 operations were pure point group operations)
 out of a pool of 24 trial point group operations.


The static configuration has the point symmetry C_1 .


Analysis of symmetry for dynamics (positions and initial velocities):
=====================================================================
 Subroutine PRICEL returns:
 Original cell was already a primitive cell.
 

 Routine SETGRP: Setting up the symmetry group for a 
 hexagonal supercell.


 Subroutine GETGRP returns: Found  1 space group operations
 (whereof  1 operations were pure point group operations)
 out of a pool of 24 trial point group operations.


The dynamic configuration has the point symmetry C_1 .


Analysis of structural, dynamic, and magnetic symmetry:
=====================================================================
 Subroutine PRICEL returns:
 Original cell was already a primitive cell.
 

 Routine SETGRP: Setting up the symmetry group for a 
 hexagonal supercell.


 Subroutine GETGRP returns: Found  1 space group operations
 (whereof  1 operations were pure point group operations)
 out of a pool of 24 trial point group operations.


The magnetic configuration has the point symmetry C_1 .


 Subroutine INISYM returns: Found  1 space group operations
 (whereof  1 operations are pure point group operations),
 and found     1 'primitive' translations

 
 
 KPOINTS: Gamma points only                       
  k-points in reciprocal lattice
Space group operators:
 irot       det(A)        alpha          n_x          n_y          n_z        tau_x        tau_y        tau_z
    1     1.000000     0.000000     1.000000     0.000000     0.000000     0.000000     0.000000     0.000000


--------------------------------------------------------------------------------------------------------




 Dimension of arrays:
   k-points           NKPTS =      1   k-points in BZ     NKDIM =      1   number of bands    NBANDS=    432
   number of dos      NEDOS =    301   number of ions     NIONS =    114
   non local maximal  LDIM  =      6   non local SUM 2l+1 LMDIM =     18
   total plane-waves  NPLWV = 777600
   max r-space proj   IRMAX =   4725   max aug-charges    IRDMAX= 128081
   dimension x,y,z NGX =    90 NGY =   90 NGZ =   96
   dimension x,y,z NGXF=   180 NGYF=  180 NGZF=  192
   support grid    NGXF=   360 NGYF=  360 NGZF=  384
   ions per type =              73  33   3   3   1   1
   NGX,Y,Z   is equivalent  to a cutoff of  10.94, 10.94, 10.81 a.u.
   NGXF,Y,Z  is equivalent  to a cutoff of  21.88, 21.88, 21.62 a.u.

 SYSTEM =  zeolite                                 
 POSCAR =  O  C                                    

 Startparameter for this run:
   NWRITE =      2    write-flag & timer
   PREC   = acc       normal or accurate (medium, high low for compatibility)
   ISTART =      0    job   : 0-new  1-cont  2-samecut
   ICHARG =      2    charge: 1-file 2-atom 10-const
   ISPIN  =      2    spin polarized calculation?
   LNONCOLLINEAR =      F non collinear calculations
   LSORBIT =      F    spin-orbit coupling
   INIWAV =      1    electr: 0-lowe 1-rand  2-diag
   LASPH  =      F    aspherical Exc in radial PAW
   METAGGA=      F    non-selfconsistent MetaGGA calc.

 Electronic Relaxation 1
   ENCUT  =  400.0 eV  29.40 Ry    5.42 a.u.  22.30 22.30 24.08*2*pi/ulx,y,z
   ENINI  =  400.0     initial cutoff
   ENAUG  =  644.9 eV  augmentation charge cutoff
   NELM   =    100;   NELMIN=  2; NELMDL= -5     # of ELM steps 
   EDIFF  = 0.1E-07   stopping-criterion for ELM
   LREAL  =      T    real-space projection
   NLSPLINE    = F    spline interpolate recip. space projectors
   LCOMPAT=      F    compatible to vasp.4.4
   GGA_COMPAT  = T    GGA compatible to vasp.4.4-vasp.4.6
   LMAXPAW     = -100 max onsite density
   LMAXMIX     =    2 max onsite mixed and CHGCAR
   VOSKOWN=      0    Vosko Wilk Nusair interpolation
   ROPT   =   -0.00025  -0.00025  -0.00025  -0.00025
   ROPT   =   -0.00025  -0.00025
 Ionic relaxation
   EDIFFG = -.1E-07   stopping-criterion for IOM
   NSW    =     10    number of steps for IOM
   NBLOCK =      1;   KBLOCK =     10    inner block; outer block 
   IBRION =      3    ionic relax: 0-MD 1-quasi-New 2-CG
   NFREE  =      0    steps in history (QN), initial steepest desc. (CG)
   ISIF   =      2    stress and relaxation
   IWAVPR =     11    prediction:  0-non 1-charg 2-wave 3-comb
   ISYM   =      2    0-nonsym 1-usesym 2-fastsym
   LCORR  =      T    Harris-Foulkes like correction to forces

   POTIM  = 0.0000    time-step for ionic-motion
   TEIN   =    0.0    initial temperature
   TEBEG  =    0.0;   TEEND  =   0.0 temperature during run
   SMASS  =  -3.00    Nose mass-parameter (am)
   estimated Nose-frequenzy (Omega)   =  0.10E-29 period in steps =  0.00 mass=  -0.427E-26a.u.
   SCALEE = 1.0000    scale energy and forces
   NPACO  =    256;   APACO  = 16.0  distance and # of slots for P.C.
   PSTRESS=    0.0 pullay stress

  Mass of Ions in am
   POMASS =  16.00 28.09 26.98107.87 32.07 12.01
  Ionic Valenz
   ZVAL   =   6.00  4.00  3.00 11.00  6.00  4.00
  Atomic Wigner-Seitz radii
   RWIGS  =  -1.00 -1.00 -1.00 -1.00 -1.00 -1.00
  virtual crystal weights 
   VCA    =   1.00  1.00  1.00  1.00  1.00  1.00
   NELECT =     622.0000    total number of electrons
   NUPDOWN=      -1.0000    fix difference up-down

 DOS related values:
   EMIN   =  10.00;   EMAX   =-10.00  energy-range for DOS
   EFERMI =   0.00
   ISMEAR =     0;   SIGMA  =   0.05  broadening in eV -4-tet -1-fermi 0-gaus

 Electronic relaxation 2 (details)
   IALGO  =     38    algorithm
   LDIAG  =      T    sub-space diagonalisation (order eigenvalues)
   LSUBROT=      F    optimize rotation matrix (better conditioning)
   TURBO    =      0    0=normal 1=particle mesh
   IRESTART =      0    0=no restart 2=restart with 2 vectors
   NREBOOT  =      0    no. of reboots
   NMIN     =      0    reboot dimension
   EREF     =   0.00    reference energy to select bands
   IMIX   =      4    mixing-type and parameters
     AMIX     =   0.40;   BMIX     =  1.00
     AMIX_MAG =   1.60;   BMIX_MAG =  1.00
     AMIN     =   0.10
     WC   =   100.;   INIMIX=   1;  MIXPRE=   1;  MAXMIX= -45

 Intra band minimization:
   WEIMIN = 0.0010     energy-eigenvalue tresh-hold
   EBREAK =  0.58E-12  absolut break condition
   DEPER  =   0.30     relativ break condition  

   TIME   =   0.40     timestep for ELM

  volume/ion in A,a.u.               =      20.98       141.57
  Fermi-wavevector in a.u.,A,eV,Ry     =   1.044991  1.974746 14.857638  1.092006
  Thomas-Fermi vector in A             =   2.179767
 
 Write flags
   LWAVE        =      F    write WAVECAR
   LDOWNSAMPLE  =      F    k-point downsampling of WAVECAR
   LCHARG       =      F    write CHGCAR
   LVTOT        =      F    write LOCPOT, total local potential
   LVHAR        =      F    write LOCPOT, Hartree potential only
   LELF         =      F    write electronic localiz. function (ELF)
   LORBIT       =     11    0 simple, 1 ext, 2 COOP (PROOUT), +10 PAW based schemes


 Dipole corrections
   LMONO  =      F    monopole corrections only (constant potential shift)
   LDIPOL =      F    correct potential (dipole corrections)
   IDIPOL =      0    1-x, 2-y, 3-z, 4-all directions 
   EPSILON=  1.0000000 bulk dielectric constant

 Exchange correlation treatment:
   GGA     =    --    GGA type
   LEXCH   =     8    internal setting for exchange type
   VOSKOWN=      0    Vosko Wilk Nusair interpolation
   LHFCALC =     F    Hartree Fock is set to
   LHFONE  =     F    Hartree Fock one center treatment
   AEXX    =    0.0000 exact exchange contribution

 Linear response parameters
   LEPSILON=     F    determine dielectric tensor
   LRPA    =     F    only Hartree local field effects (RPA)
   LNABLA  =     F    use nabla operator in PAW spheres
   LVEL    =     F    velocity operator in full k-point grid
   LINTERFAST=   F  fast interpolation
   KINTER  =     0    interpolate to denser k-point grid
   CSHIFT  =0.1000    complex shift for real part using Kramers Kronig
   OMEGAMAX=  -1.0    maximum frequency
   DEG_THRESHOLD= 0.2000000E-02 threshold for treating states as degnerate
   RTIME   =   -0.100 relaxation time in fs
  (WPLASMAI=    0.000 imaginary part of plasma frequency in eV, 0.658/RTIME)
   DFIELD  = 0.0000000 0.0000000 0.0000000 field for delta impulse in time
 
 Orbital magnetization related:
   ORBITALMAG=     F  switch on orbital magnetization
   LCHIMAG   =     F  perturbation theory with respect to B field
   DQ        =  0.001000  dq finite difference perturbation B field
   LLRAUG    =     F  two centre corrections for induced B field



--------------------------------------------------------------------------------------------------------


 quickmin algorithm: (dynamic with friction)
 charge density and potential will be updated during run
 spin polarized calculation
 Variant of blocked Davidson
 Davidson routine will perform the subspace rotation
 perform sub-space diagonalisation
    after iterative eigenvector-optimisation
 modified Broyden-mixing scheme, WC =      100.0
 initial mixing is a Kerker type mixing with AMIX =  0.4000 and BMIX =      1.0000
 Hartree-type preconditioning will be used
 using additional bands          121
 real space projection scheme for non local part
 use partial core corrections
 calculate Harris-corrections to forces 
   (improved forces if not selfconsistent)
 use gradient corrections 
 use of overlap-Matrix (Vanderbilt PP)
 Gauss-broadening in eV      SIGMA  =   0.05


--------------------------------------------------------------------------------------------------------


  energy-cutoff  :      400.00
  volume of cell :     2391.54
      direct lattice vectors                 reciprocal lattice vectors
    13.675000191  0.000000000  0.000000000     0.073126142  0.042219398  0.000000000
    -6.837500095 11.842897562  0.000000000     0.000000000  0.084438795  0.000000000
     0.000000000  0.000000000 14.767000198     0.000000000  0.000000000  0.067718561

  length of vectors
    13.675000191 13.675000191 14.767000198     0.084438795  0.084438795  0.067718561


 
 k-points in units of 2pi/SCALE and weight: Gamma points only                       
   0.00000000  0.00000000  0.00000000       1.000
 
 k-points in reciprocal lattice and weights: Gamma points only                       
   0.00000000  0.00000000  0.00000000       1.000
 
 position of ions in fractional coordinates (direct lattice) 
   0.89934965  0.09754288  0.11802622
   0.10524284  0.88823808  0.87899838
   0.89414273  0.79371453  0.12939885
   0.09665365  0.19728696  0.86517555
   0.19707950  0.10415284  0.11451062
   0.80503296  0.90360021  0.88036957
   0.55561697  0.42726886  0.45593404
   0.76413539  0.23375249  0.21720731
   0.56726660  0.14198715  0.47031761
   0.76778514  0.53966464  0.20561745
   0.86408468  0.42564864  0.46082546
   0.46558280  0.23577747  0.18237003
   0.23350093  0.77525182  0.77499575
   0.42520959  0.56964867  0.52353394
   0.23187908  0.44740780  0.77101111
   0.42914478  0.85151365  0.52936443
   0.53010223  0.75549404  0.80342468
   0.12506066  0.56047268  0.53319842
   0.97803751  0.31599834  0.16025899
   0.02465249  0.66868364  0.84256064
   0.67806908  0.67275609  0.17194690
   0.31451333  0.31558213  0.81737537
   0.31891058  0.01506403  0.17737818
   0.66570111  0.97865426  0.82565304
   0.32474619  0.98576572  0.83735061
   0.67803250  0.00412514  0.16090787
   0.67100337  0.67263027  0.81270022
   0.33315178  0.32346178  0.15691017
   0.01814349  0.33702084  0.83169297
   0.98875077  0.67032325  0.17219954
   0.64744224  0.64146581  0.50311996
   0.34321282  0.99426677  0.47484516
   0.99564903  0.33870337  0.49713271
   0.33746738  0.35061506  0.47983634
   0.98625494  0.64247295  0.50507231
   0.65016258  0.00769665  0.51429441
   0.11855219  0.24322626  0.12860865
   0.88614875  0.74494207  0.85282543
   0.76218915  0.87816424  0.11075338
   0.22880928  0.10786647  0.87046192
   0.11270927  0.88316417  0.12844110
   0.87723702  0.12230672  0.85871713
   0.77480357  0.55665167  0.46660496
   0.53609707  0.08593564  0.17418390
   0.41680984  0.21069671  0.46680933
   0.90314262  0.45343582  0.19568520
   0.78452756  0.20712596  0.45310460
   0.54789726  0.45555734  0.19366837
   0.45010915  0.89645747  0.80717431
   0.21006360  0.42778945  0.54061931
   0.12426926  0.55547101  0.80064167
   0.57947813  0.78789404  0.51947491
   0.45040882  0.53439942  0.79954586
   0.20234859  0.77683323  0.54439134
   0.99878819  0.25832207  0.99433288
   0.99107528  0.73009857  0.00257894
   0.73630134  0.71354650  0.99892007
   0.25725446  0.26653651  0.99058705
   0.26817397  0.99926220  0.00320157
   0.66111437  0.58931955  0.33296850
   0.63296533  0.05011092  0.34072923
   0.44131915  0.10828220  0.32433027
   0.92135050  0.58653754  0.33490906
   0.93865233  0.34487992  0.32941910
   0.40707695  0.32328682  0.32139555
   0.35978622  0.95020314  0.66630815
   0.35463707  0.40892034  0.65308019
   0.05818711  0.40634580  0.66477337
   0.57508245  0.89706438  0.66634211
   0.56808500  0.65928060  0.66031658
   0.05481936  0.64046891  0.67060919
   0.73321023  0.01093300  0.99281693
   0.75375678  0.28176724  0.76103736
   0.99712086  0.22806017  0.10096402
   0.00227696  0.76018625  0.89559672
   0.76683674  0.76330083  0.09934986
   0.22364226  0.22169977  0.88694176
   0.22383584  0.00137636  0.10570536
   0.77249938  0.00010900  0.88834938
   0.23090327  0.99450939  0.89758053
   0.77004236  0.99800242  0.09809115
   0.22653189  0.23360927  0.09718525
   0.99780549  0.22703647  0.88859131
   0.99553425  0.76916717  0.10738774
   0.65967509  0.55342386  0.43712144
   0.44073795  0.11002895  0.43456435
   0.89411106  0.56138675  0.22716734
   0.89342171  0.32741752  0.43276506
   0.43896928  0.33395817  0.21436091
   0.89165238  0.33326752  0.22527062
   0.42940018  0.32654188  0.42931033
   0.44120829  0.11126005  0.21550817
   0.88719286  0.55208552  0.43969320
   0.66489676  0.56425396  0.22552071
   0.65706194  0.10073580  0.44108159
   0.34181657  0.90326628  0.76731785
   0.33206291  0.43700574  0.55089179
   0.10848321  0.43604088  0.76743905
   0.55806380  0.88858509  0.55733829
   0.55570044  0.65663795  0.77009960
   0.09320745  0.65936557  0.56419008
   0.55657029  0.66572032  0.55247794
   0.11169537  0.66269101  0.77145024
   0.09506507  0.43108444  0.55954668
   0.55492523  0.88140034  0.77430649
   0.33759602  0.42626479  0.76057445
   0.77361567  0.76483144  0.89022021
   0.65669617  0.09536873  0.22973536
   0.33206121  0.89948425  0.55588160
   0.56209950  0.02249731  0.03559568
   0.31937126  0.67150412  0.47901233
   0.78318639  0.59019247  0.76147849
   0.70316680  0.42401332  0.66664613
   0.73377188  0.34450345  0.72300427
 
 position of ions in cartesian coordinates  (Angst):
  11.63165711  1.15519036  1.74289317
  -4.63413217 10.51931261 12.98016923
   6.80037884  9.39987992  1.91083287
  -0.02721089  2.33644925 12.77604750
   1.98291711  1.23347137  1.69097841
   4.83045938 10.70124470 13.00041766
   4.67661124  5.06010137  6.73277807
   8.85126894  2.76830681  3.20750041
   6.78653371  1.68153927  6.94518022
   6.80950496  6.39119300  3.03635292
   8.90598550  5.04091324  6.80500967
   4.75471633  2.79228848  2.69305824
  -2.10765911  9.18122784 11.44436243
   1.91976832  6.74629089  7.73102578
   0.11179557  5.29860477 11.38552117
   0.04633025 10.08438889  7.81712471
   2.08345750  8.94723858 11.86417246
  -2.12202745  6.63762058  7.87374123
  11.21402451  3.74233593  2.36654454
  -4.23500165  7.91915185 12.44209321
   4.67262494  7.96738148  2.53913992
   2.14317704  3.73740679 12.07018223
   4.25810186  0.17840182  2.61934355
   2.41191417 11.59010210 12.19241867
  -2.29926896 11.67432246 12.36515664
   9.24388890  0.04885358  2.37612659
   4.57686167  7.96589144 12.00114432
   2.34418065  3.83072473  2.31709256
  -2.05626776  3.99130327 12.28161024
   8.93783169  7.93856958  2.54287071
   4.46775017  7.59681391  7.42957255
  -2.10486374 11.77499952  7.01203856
  11.29961635  4.01122931  7.34115890
   2.21753590  4.15229829  7.08574340
   9.09412765  7.60874136  7.45840294
   8.83834751  0.09115067  7.59458562
  -0.04185832  2.88050370  1.89916390
   7.02454283  8.82227258 12.59367327
   4.41848865 10.40000910  1.63549518
   2.39142992  1.27745160 12.85411128
  -4.49733581 10.45922281  1.89668972
  11.15994429  1.44846590 12.68067609
   6.78933311  6.59236868  6.89035557
   6.74354254  1.01772698  2.57217367
   4.25923592  2.49525957  6.89337342
   9.25010811  5.36999394  2.88968334
   9.31219072  2.45297150  6.69099575
   4.37762181  5.39511887  2.85990083
   0.02571468 10.61665399 11.91954319
  -0.05239067  5.06626664  7.98332552
  -2.09865090  6.57838627 11.82307575
   2.53713800  9.33094841  7.67108606
   2.50538463  6.32883755 11.80689390
  -2.54448026  9.19995635  8.03902703
  11.89215156  3.05928175 14.68331380
   8.56090565  8.64648257  0.03808318
   5.19004667  8.45045812 14.75105294
   1.69551137  3.15656456 14.62799922
  -3.16517631 11.83415993  0.04727763
   5.01126664  6.97925111  4.91694588
   8.31316752  0.59345855  5.03154860
   5.29465998  1.28237497  4.78938515
   8.58901772  6.94630401  4.94560219
  10.47795425  4.08437754  4.86453193
   3.35630366  3.82865268  4.74604822
  -1.57693745 11.25315840  9.83937263
   2.05366907  4.84280172  9.64403524
  -1.98268066  4.81231168  9.81670847
   1.73057478 10.62384157  9.83987413
   3.26073135  7.80779265  9.75089511
  -3.62955147  7.58500770  9.90288602
   9.95189564  0.12947834 14.66092773
   8.38104050  3.33694059 11.23823883
  12.07626656  2.70089325  1.49093573
  -5.16663619  9.00280794 13.22527696
   5.26742302  9.03969353  1.46709943
   1.54243569  2.62556766 13.09746918
   3.05154430  0.01630009  1.56095102
  10.56318388  0.00129084 13.11825544
  -3.64235571 11.77787279 13.25457188
   3.70648776 11.81924037  1.44851209
   1.50052027  2.76661066  1.43513462
  12.09262844  2.68876964 13.12182802
   8.35475046  9.10916798  1.58579476
   5.23702123  6.55414214  6.45497242
   5.27476865  1.30306160  6.41721187
   8.38848699  6.64844578  3.35458009
   9.97882475  3.87757214  6.39064172
   3.71946592  3.95503244  3.16546753
   9.91462981  3.94685307  3.32657134
   3.63931746  3.86720201  6.33962571
   5.27278286  1.31764141  3.18240923
   8.35747773  6.53829221  6.49294963
   5.23437680  6.68240183  3.33026435
   8.29654116  1.19300378  6.51345198
  -1.50174154 10.69728999 11.33098279
   1.55293353  5.17541419  8.13501910
  -1.49792167  5.16398748 11.33277263
   1.55582193 10.52342218  8.23021459
   3.10944154  7.77649597 11.37206092
  -3.23380020  7.80879886  8.33139504
   3.05923601  7.88405756  8.15844189
  -3.00371564  7.84818172 11.39200582
  -1.64752498  5.10528882  8.26282599
   1.56202773 10.43833391 11.43418404
   1.70204006  5.04821025 11.23140306
   5.34965942  9.05782034 13.14588197
   8.32823663  1.12944204  3.39250211
  -1.60928650 10.65249988  8.20870370
   7.53288540  0.26643330  0.52564143
  -0.22400744  7.95255449  7.07357515
   6.67463299  6.98958891 11.24475306
   6.71661499  5.02154631  9.84436347
   7.67878830  4.07991904 10.67660415
 


--------------------------------------------------------------------------------------------------------


 k-point  1 :   0.0000 0.0000 0.0000  plane waves:   43405

 maximum and minimum number of plane-waves per node :     10852    10850

 maximum number of plane-waves:     43405
 maximum index in each direction: 
   IXMAX=   22   IYMAX=   22   IZMAX=   24
   IXMIN=  -22   IYMIN=  -22   IZMIN=  -24


 real space projection operators:
  total allocation   :      30727.52 KBytes
  max/ min on nodes  :       7845.31       7510.06


 parallel 3D FFT for wavefunctions:
    minimum data exchange during FFTs selected (reduces bandwidth)
 parallel 3D FFT for charge:
    minimum data exchange during FFTs selected (reduces bandwidth)


 total amount of memory used by VASP MPI-rank0   214872. kBytes
=======================================================================

   base      :      30000. kBytes
   nonlr-proj:      18802. kBytes
   fftplans  :      63994. kBytes
   grid      :      62827. kBytes
   one-center:        902. kBytes
   wavefun   :      38347. kBytes
 
     INWAV:  cpu time    0.0000: real time    0.0002
 Broyden mixing: mesh for mixing (old mesh)
   NGX = 45   NGY = 45   NGZ = 49
  (NGX  =180   NGY  =180   NGZ  =192)
  gives a total of  99225 points

 initial charge density was supplied:
 charge density of overlapping atoms calculated
 number of electron     622.0000000 magnetization     114.0000000
 keeping initial charge density in first step


--------------------------------------------------------------------------------------------------------


 Maximum index for non-local projection operator         1312
 Maximum index for augmentation-charges         7860 (set IRDMAX)


--------------------------------------------------------------------------------------------------------


 First call to EWALD:  gamma=   0.133
 Maximum number of real-space cells 3x 3x 3
 Maximum number of reciprocal cells 3x 3x 3

    FEWALD:  cpu time    0.0152: real time    0.0152


--------------------------------------- Iteration      1(   1)  ---------------------------------------


    POTLOK:  cpu time    0.7670: real time    0.7919
    SETDIJ:  cpu time    0.9054: real time    0.9233
     EDDAV:  cpu time   23.9381: real time   24.0788
       DOS:  cpu time    0.0007: real time    0.0007
    --------------------------------------------
      LOOP:  cpu time   25.6112: real time   25.7946

 eigenvalue-minimisations  :  1800
 total energy-change (2. order) : 0.4377016E+04  (-0.2598287E+05)
 number of electron     622.0000000 magnetization     114.0000000
 augmentation part      622.0000000 magnetization     114.0000000

 Free energy of the ion-electron system (eV)
  ---------------------------------------------------
  alpha Z        PSCENC =       648.78857340
  Ewald energy   TEWEN  =     -6938.04979133
  -Hartree energ DENC   =    -28324.25254871
  -exchange      EXHF   =         0.00000000
  -V(xc)+E(xc)   XCENC  =      1672.95307865
  PAW double counting   =     21889.73376938   -21206.52504692
  entropy T*S    EENTRO =        -0.02901978
  eigenvalues    EBANDS =     -2018.75929320
  atomic energy  EATOM  =     38653.15601086
  Solvation  Ediel_sol  =         0.00000000
  ---------------------------------------------------
  free energy    TOTEN  =      4377.01573236 eV

  energy without entropy =     4377.04475214  energy(sigma->0) =     4377.03024225


--------------------------------------------------------------------------------------------------------




--------------------------------------- Iteration      1(   2)  ---------------------------------------


     EDDAV:  cpu time   27.0957: real time   27.1713
       DOS:  cpu time    0.0003: real time    0.0003
    --------------------------------------------
      LOOP:  cpu time   27.0960: real time   27.1716

 eigenvalue-minimisations  :  2096
 total energy-change (2. order) :-0.4805667E+04  (-0.4626075E+04)
 number of electron     622.0000000 magnetization     114.0000000
 augmentation part      622.0000000 magnetization     114.0000000

 Free energy of the ion-electron system (eV)
  ---------------------------------------------------
  alpha Z        PSCENC =       648.78857340
  Ewald energy   TEWEN  =     -6938.04979133
  -Hartree energ DENC   =    -28324.25254871
  -exchange      EXHF   =         0.00000000
  -V(xc)+E(xc)   XCENC  =      1672.95307865
  PAW double counting   =     21889.73376938   -21206.52504692
  entropy T*S    EENTRO =        -0.00000000
  eigenvalues    EBANDS =     -6824.45528236
  atomic energy  EATOM  =     38653.15601086
  Solvation  Ediel_sol  =         0.00000000
  ---------------------------------------------------
  free energy    TOTEN  =      -428.65123702 eV

  energy without entropy =     -428.65123702  energy(sigma->0) =     -428.65123702


--------------------------------------------------------------------------------------------------------




--------------------------------------- Iteration      1(   3)  ---------------------------------------


     EDDAV:  cpu time   26.9666: real time   27.1405
       DOS:  cpu time    0.0003: real time    0.0003
    --------------------------------------------
      LOOP:  cpu time   26.9669: real time   27.1408

 eigenvalue-minimisations  :  2104
 total energy-change (2. order) :-0.5170232E+03  (-0.5133622E+03)
 number of electron     622.0000000 magnetization     114.0000000
 augmentation part      622.0000000 magnetization     114.0000000

 Free energy of the ion-electron system (eV)
  ---------------------------------------------------
  alpha Z        PSCENC =       648.78857340
  Ewald energy   TEWEN  =     -6938.04979133
  -Hartree energ DENC   =    -28324.25254871
  -exchange      EXHF   =         0.00000000
  -V(xc)+E(xc)   XCENC  =      1672.95307865
  PAW double counting   =     21889.73376938   -21206.52504692
  entropy T*S    EENTRO =        -0.00000000
  eigenvalues    EBANDS =     -7341.47851259
  atomic energy  EATOM  =     38653.15601086
  Solvation  Ediel_sol  =         0.00000000
  ---------------------------------------------------
  free energy    TOTEN  =      -945.67446725 eV

  energy without entropy =     -945.67446725  energy(sigma->0) =     -945.67446725


--------------------------------------------------------------------------------------------------------




--------------------------------------- Iteration      1(   4)  ---------------------------------------


     EDDAV:  cpu time   27.3884: real time   27.4758
       DOS:  cpu time    0.0003: real time    0.0003
    --------------------------------------------
      LOOP:  cpu time   27.3887: real time   27.4761

 eigenvalue-minimisations  :  2160
 total energy-change (2. order) :-0.1041893E+02  (-0.1037851E+02)
 number of electron     622.0000000 magnetization     114.0000000
 augmentation part      622.0000000 magnetization     114.0000000

 Free energy of the ion-electron system (eV)
  ---------------------------------------------------
  alpha Z        PSCENC =       648.78857340
  Ewald energy   TEWEN  =     -6938.04979133
  -Hartree energ DENC   =    -28324.25254871
  -exchange      EXHF   =         0.00000000
  -V(xc)+E(xc)   XCENC  =      1672.95307865
  PAW double counting   =     21889.73376938   -21206.52504692
  entropy T*S    EENTRO =        -0.00000000
  eigenvalues    EBANDS =     -7351.89744551
  atomic energy  EATOM  =     38653.15601086
  Solvation  Ediel_sol  =         0.00000000
  ---------------------------------------------------
  free energy    TOTEN  =      -956.09340017 eV

  energy without entropy =     -956.09340017  energy(sigma->0) =     -956.09340017


--------------------------------------------------------------------------------------------------------




--------------------------------------- Iteration      1(   5)  ---------------------------------------


     EDDAV:  cpu time   27.0241: real time   27.0915
       DOS:  cpu time    0.0003: real time    0.0003
    CHARGE:  cpu time    2.2008: real time    2.2063
    MIXING:  cpu time    0.0289: real time    0.0290
    --------------------------------------------
      LOOP:  cpu time   29.2541: real time   29.3272

 eigenvalue-minimisations  :  2128
 total energy-change (2. order) :-0.2642185E+00  (-0.2638733E+00)
 number of electron     622.0000002 magnetization      86.0401199
 augmentation part       69.5609834 magnetization      87.2276986

 Broyden mixing:
  rms(total) = 0.86816E+01    rms(broyden)= 0.86773E+01
  rms(prec ) = 0.94844E+01
  weight for this iteration     100.00

 Free energy of the ion-electron system (eV)
  ---------------------------------------------------
  alpha Z        PSCENC =       648.78857340
  Ewald energy   TEWEN  =     -6938.04979133
  -Hartree energ DENC   =    -28324.25254871
  -exchange      EXHF   =         0.00000000
  -V(xc)+E(xc)   XCENC  =      1672.95307865
  PAW double counting   =     21889.73376938   -21206.52504692
  entropy T*S    EENTRO =        -0.00000000
  eigenvalues    EBANDS =     -7352.16166399
  atomic energy  EATOM  =     38653.15601086
  Solvation  Ediel_sol  =         0.00000000
  ---------------------------------------------------
  free energy    TOTEN  =      -956.35761865 eV

  energy without entropy =     -956.35761865  energy(sigma->0) =     -956.35761865


--------------------------------------------------------------------------------------------------------




--------------------------------------- Iteration      1(   6)  ---------------------------------------


    POTLOK:  cpu time    0.7680: real time    0.7764
    SETDIJ:  cpu time    0.9442: real time    0.9466
     EDDAV:  cpu time   25.9197: real time   25.9847
       DOS:  cpu time    0.0003: real time    0.0003
    CHARGE:  cpu time    2.2519: real time    2.2576
    MIXING:  cpu time    0.0220: real time    0.0221
    --------------------------------------------
      LOOP:  cpu time   29.9061: real time   29.9876

 eigenvalue-minimisations  :  2016
 total energy-change (2. order) : 0.3513538E+03  (-0.7146065E+02)
 number of electron     622.0000002 magnetization      63.2814357
 augmentation part       61.5853254 magnetization      59.3392674

 Broyden mixing:
  rms(total) = 0.28056E+01    rms(broyden)= 0.28019E+01
  rms(prec ) = 0.30369E+01
  weight for this iteration     100.00

 eigenvalues of (default mixing * dielectric matrix)
  average eigenvalue GAMMA=   1.0009
  1.0009

 Free energy of the ion-electron system (eV)
  ---------------------------------------------------
  alpha Z        PSCENC =       648.78857340
  Ewald energy   TEWEN  =     -6938.04979133
  -Hartree energ DENC   =    -29713.55898922
  -exchange      EXHF   =         0.00000000
  -V(xc)+E(xc)   XCENC  =      1926.65001224
  PAW double counting   =     25661.17876772   -25001.38660654
  entropy T*S    EENTRO =        -0.00000000
  eigenvalues    EBANDS =     -5841.78175905
  atomic energy  EATOM  =     38653.15601086
  Solvation  Ediel_sol  =         0.00000000
  ---------------------------------------------------
  free energy    TOTEN  =      -605.00378190 eV

  energy without entropy =     -605.00378190  energy(sigma->0) =     -605.00378190


--------------------------------------------------------------------------------------------------------




--------------------------------------- Iteration      1(   7)  ---------------------------------------


    POTLOK:  cpu time    0.7606: real time    0.7626
    SETDIJ:  cpu time    0.9660: real time    0.9685
     EDDAV:  cpu time   26.4052: real time   26.4792
       DOS:  cpu time    0.0004: real time    0.0004
    CHARGE:  cpu time    2.2576: real time    2.2633
    MIXING:  cpu time    0.0222: real time    0.0223
    --------------------------------------------
      LOOP:  cpu time   30.4120: real time   30.4962

 eigenvalue-minimisations  :  2064
 total energy-change (2. order) :-0.8913408E+02  (-0.8323657E+01)
 number of electron     622.0000002 magnetization      42.1845164
 augmentation part       59.0038602 magnetization      38.6772548

 Broyden mixing:
  rms(total) = 0.19238E+01    rms(broyden)= 0.19232E+01
  rms(prec ) = 0.20226E+01
  weight for this iteration     100.00

 eigenvalues of (default mixing * dielectric matrix)
  average eigenvalue GAMMA=   1.0470
  1.0470  1.0470

 Free energy of the ion-electron system (eV)
  ---------------------------------------------------
  alpha Z        PSCENC =       648.78857340
  Ewald energy   TEWEN  =     -6938.04979133
  -Hartree energ DENC   =    -30149.84242789
  -exchange      EXHF   =         0.00000000
  -V(xc)+E(xc)   XCENC  =      1887.75254494
  PAW double counting   =     27059.15034950   -26402.29941847
  entropy T*S    EENTRO =        -0.00000000
  eigenvalues    EBANDS =     -5452.79370160
  atomic energy  EATOM  =     38653.15601086
  Solvation  Ediel_sol  =         0.00000000
  ---------------------------------------------------
  free energy    TOTEN  =      -694.13786058 eV

  energy without entropy =     -694.13786058  energy(sigma->0) =     -694.13786058


--------------------------------------------------------------------------------------------------------




--------------------------------------- Iteration      1(   8)  ---------------------------------------


    POTLOK:  cpu time    0.8238: real time    0.8317
    SETDIJ:  cpu time    0.9218: real time    0.9241
     EDDAV:  cpu time   26.1113: real time   26.1887
       DOS:  cpu time    0.0003: real time    0.0003
    CHARGE:  cpu time    2.2547: real time    2.2603
    MIXING:  cpu time    0.0276: real time    0.0276
    --------------------------------------------
      LOOP:  cpu time   30.1395: real time   30.2327

 eigenvalue-minimisations  :  2040
 total energy-change (2. order) :-0.6950785E+02  (-0.3024679E+01)
 number of electron     622.0000002 magnetization      18.8210109
 augmentation part       59.2809148 magnetization      16.2910909

 Broyden mixing:
  rms(total) = 0.11010E+01    rms(broyden)= 0.11007E+01
  rms(prec ) = 0.11463E+01
  weight for this iteration     100.00

 eigenvalues of (default mixing * dielectric matrix)
  average eigenvalue GAMMA=   1.3895
  2.2649  1.1840  0.7194

 Free energy of the ion-electron system (eV)
  ---------------------------------------------------
  alpha Z        PSCENC =       648.78857340
  Ewald energy   TEWEN  =     -6938.04979133
  -Hartree energ DENC   =    -30226.81643494
  -exchange      EXHF   =         0.00000000
  -V(xc)+E(xc)   XCENC  =      1841.35658661
  PAW double counting   =     27481.95119937   -26823.47409998
  entropy T*S    EENTRO =        -0.00000000
  eigenvalues    EBANDS =     -5400.55775062
  atomic energy  EATOM  =     38653.15601086
  Solvation  Ediel_sol  =         0.00000000
  ---------------------------------------------------
  free energy    TOTEN  =      -763.64570662 eV

  energy without entropy =     -763.64570662  energy(sigma->0) =     -763.64570662


--------------------------------------------------------------------------------------------------------




--------------------------------------- Iteration      1(   9)  ---------------------------------------


    POTLOK:  cpu time    0.8160: real time    0.8222
    SETDIJ:  cpu time    0.9135: real time    0.9158
     EDDAV:  cpu time   25.8731: real time   25.9375
       DOS:  cpu time    0.0003: real time    0.0003
    CHARGE:  cpu time    2.1845: real time    2.1900
    MIXING:  cpu time    0.0216: real time    0.0217
    --------------------------------------------
      LOOP:  cpu time   29.8090: real time   29.8874

 eigenvalue-minimisations  :  2016
 total energy-change (2. order) :-0.7699202E+02  (-0.5753294E+01)
 number of electron     622.0000002 magnetization      13.4327867
 augmentation part       59.1771144 magnetization      12.1568843

 Broyden mixing:
  rms(total) = 0.48957E+00    rms(broyden)= 0.48886E+00
  rms(prec ) = 0.51388E+00
  weight for this iteration     100.00

 eigenvalues of (default mixing * dielectric matrix)
  average eigenvalue GAMMA=   1.2907
  2.4631  1.2357  0.7319  0.7319

 Free energy of the ion-electron system (eV)
  ---------------------------------------------------
  alpha Z        PSCENC =       648.78857340
  Ewald energy   TEWEN  =     -6938.04979133
  -Hartree energ DENC   =    -30344.16929656
  -exchange      EXHF   =         0.00000000
  -V(xc)+E(xc)   XCENC  =      1795.35059756
  PAW double counting   =     27918.00983177   -27258.90130063
  entropy T*S    EENTRO =        -0.00000000
  eigenvalues    EBANDS =     -5314.82235496
  atomic energy  EATOM  =     38653.15601086
  Solvation  Ediel_sol  =         0.00000000
  ---------------------------------------------------
  free energy    TOTEN  =      -840.63772988 eV

  energy without entropy =     -840.63772988  energy(sigma->0) =     -840.63772988


--------------------------------------------------------------------------------------------------------




--------------------------------------- Iteration      1(  10)  ---------------------------------------


    POTLOK:  cpu time    0.8177: real time    0.8215
    SETDIJ:  cpu time    0.9258: real time    0.9281
     EDDAV:  cpu time   26.6634: real time   26.7294
       DOS:  cpu time    0.0003: real time    0.0003
    CHARGE:  cpu time    2.1845: real time    2.1899
    MIXING:  cpu time    0.0648: real time    0.0649
    --------------------------------------------
      LOOP:  cpu time   30.6564: real time   30.7342

 eigenvalue-minimisations  :  2096
 total energy-change (2. order) :-0.1388142E+02  (-0.8049705E+00)
 number of electron     622.0000002 magnetization       4.7742311
 augmentation part       58.8177281 magnetization       3.9955351

 Broyden mixing:
  rms(total) = 0.35178E+00    rms(broyden)= 0.35133E+00
  rms(prec ) = 0.37457E+00
  weight for this iteration     100.00

 eigenvalues of (default mixing * dielectric matrix)
  average eigenvalue GAMMA=   1.4607
  2.7467  2.0037  0.9511  0.9511  0.6509

 Free energy of the ion-electron system (eV)
  ---------------------------------------------------
  alpha Z        PSCENC =       648.78857340
  Ewald energy   TEWEN  =     -6938.04979133
  -Hartree energ DENC   =    -30354.89750939
  -exchange      EXHF   =         0.00000000
  -V(xc)+E(xc)   XCENC  =      1787.96782171
  PAW double counting   =     27906.57831435   -27247.67189999
  entropy T*S    EENTRO =        -0.00000000
  eigenvalues    EBANDS =     -5310.39067442
  atomic energy  EATOM  =     38653.15601086
  Solvation  Ediel_sol  =         0.00000000
  ---------------------------------------------------
  free energy    TOTEN  =      -854.51915481 eV

  energy without entropy =     -854.51915481  energy(sigma->0) =     -854.51915481


--------------------------------------------------------------------------------------------------------




--------------------------------------- Iteration      1(  11)  ---------------------------------------


    POTLOK:  cpu time    0.7665: real time    0.7744
    SETDIJ:  cpu time    0.9194: real time    0.9217
     EDDAV:  cpu time   25.1666: real time   25.2365
       DOS:  cpu time    0.0003: real time    0.0003
    CHARGE:  cpu time    2.1456: real time    2.1510
    MIXING:  cpu time    0.0242: real time    0.0243
    --------------------------------------------
      LOOP:  cpu time   29.0226: real time   29.1082

 eigenvalue-minimisations  :  1952
 total energy-change (2. order) :-0.1705713E+02  (-0.1239943E+01)
 number of electron     622.0000002 magnetization       2.5487670
 augmentation part       58.8460236 magnetization       2.3278530

 Broyden mixing:
  rms(total) = 0.16913E+00    rms(broyden)= 0.16864E+00
  rms(prec ) = 0.18178E+00
  weight for this iteration     100.00

 eigenvalues of (default mixing * dielectric matrix)
  average eigenvalue GAMMA=   1.4281
  3.2372  2.0028  1.1547  0.7672  0.7672  0.6397

 Free energy of the ion-electron system (eV)
  ---------------------------------------------------
  alpha Z        PSCENC =       648.78857340
  Ewald energy   TEWEN  =     -6938.04979133
  -Hartree energ DENC   =    -30294.88970098
  -exchange      EXHF   =         0.00000000
  -V(xc)+E(xc)   XCENC  =      1773.47433449
  PAW double counting   =     27690.72943314   -27031.02708810
  entropy T*S    EENTRO =        -0.00000000
  eigenvalues    EBANDS =     -5373.75805507
  atomic energy  EATOM  =     38653.15601086
  Solvation  Ediel_sol  =         0.00000000
  ---------------------------------------------------
  free energy    TOTEN  =      -871.57628359 eV

  energy without entropy =     -871.57628359  energy(sigma->0) =     -871.57628359


--------------------------------------------------------------------------------------------------------




--------------------------------------- Iteration      1(  12)  ---------------------------------------


    POTLOK:  cpu time    0.8231: real time    0.8252
    SETDIJ:  cpu time    0.9202: real time    0.9226
     EDDAV:  cpu time   25.6736: real time   25.7375
       DOS:  cpu time    0.0003: real time    0.0003
    CHARGE:  cpu time    2.1351: real time    2.1403
    MIXING:  cpu time    0.0329: real time    0.0330
    --------------------------------------------
      LOOP:  cpu time   29.5851: real time   29.6589

 eigenvalue-minimisations  :  2024
 total energy-change (2. order) :-0.1906237E+01  (-0.1059040E+00)
 number of electron     622.0000002 magnetization       0.9049574
 augmentation part       58.7436185 magnetization       0.7845465

 Broyden mixing:
  rms(total) = 0.91404E-01    rms(broyden)= 0.91276E-01
  rms(prec ) = 0.10770E+00
  weight for this iteration     100.00

 eigenvalues of (default mixing * dielectric matrix)
  average eigenvalue GAMMA=   1.4957
  3.7035  2.2705  1.3059  0.9478  0.9478  0.6728  0.6213

 Free energy of the ion-electron system (eV)
  ---------------------------------------------------
  alpha Z        PSCENC =       648.78857340
  Ewald energy   TEWEN  =     -6938.04979133
  -Hartree energ DENC   =    -30285.72006587
  -exchange      EXHF   =         0.00000000
  -V(xc)+E(xc)   XCENC  =      1772.01012450
  PAW double counting   =     27684.17346680   -27024.61036619
  entropy T*S    EENTRO =        -0.00000000
  eigenvalues    EBANDS =     -5383.23047309
  atomic energy  EATOM  =     38653.15601086
  Solvation  Ediel_sol  =         0.00000000
  ---------------------------------------------------
  free energy    TOTEN  =      -873.48252091 eV

  energy without entropy =     -873.48252091  energy(sigma->0) =     -873.48252091


--------------------------------------------------------------------------------------------------------




--------------------------------------- Iteration      1(  13)  ---------------------------------------


    POTLOK:  cpu time    0.7692: real time    0.7873
    SETDIJ:  cpu time    0.9383: real time    0.9406
     EDDAV:  cpu time   24.5213: real time   24.5827
       DOS:  cpu time    0.0003: real time    0.0003
    CHARGE:  cpu time    2.1764: real time    2.1818
    MIXING:  cpu time    0.0269: real time    0.0270
    --------------------------------------------
      LOOP:  cpu time   28.4323: real time   28.5197

 eigenvalue-minimisations  :  1912
 total energy-change (2. order) :-0.9678272E+00  (-0.4119365E-01)
 number of electron     622.0000002 magnetization       0.3783953
 augmentation part       58.7975854 magnetization       0.3270172

 Broyden mixing:
  rms(total) = 0.42798E-01    rms(broyden)= 0.42727E-01
  rms(prec ) = 0.53131E-01
  weight for this iteration     100.00

 eigenvalues of (default mixing * dielectric matrix)
  average eigenvalue GAMMA=   1.4686
  3.8717  2.3480  1.3761  1.0741  0.8943  0.8943  0.6617  0.6284

 Free energy of the ion-electron system (eV)
  ---------------------------------------------------
  alpha Z        PSCENC =       648.78857340
  Ewald energy   TEWEN  =     -6938.04979133
  -Hartree energ DENC   =    -30260.39264385
  -exchange      EXHF   =         0.00000000
  -V(xc)+E(xc)   XCENC  =      1770.02027135
  PAW double counting   =     27650.35300620   -26990.74977967
  entropy T*S    EENTRO =        -0.00000000
  eigenvalues    EBANDS =     -5407.57599507
  atomic energy  EATOM  =     38653.15601086
  Solvation  Ediel_sol  =         0.00000000
  ---------------------------------------------------
  free energy    TOTEN  =      -874.45034810 eV

  energy without entropy =     -874.45034810  energy(sigma->0) =     -874.45034810


--------------------------------------------------------------------------------------------------------




--------------------------------------- Iteration      1(  14)  ---------------------------------------


    POTLOK:  cpu time    0.7615: real time    0.7636
    SETDIJ:  cpu time    0.9173: real time    0.9204
     EDDAV:  cpu time   24.7142: real time   24.8036
       DOS:  cpu time    0.0003: real time    0.0003
    CHARGE:  cpu time    2.1463: real time    2.1516
    MIXING:  cpu time    0.0323: real time    0.0324
    --------------------------------------------
      LOOP:  cpu time   28.5719: real time   28.6720

 eigenvalue-minimisations  :  1928
 total energy-change (2. order) :-0.1605194E+00  (-0.6357683E-02)
 number of electron     622.0000002 magnetization       0.1448008
 augmentation part       58.7947398 magnetization       0.1263808

 Broyden mixing:
  rms(total) = 0.25414E-01    rms(broyden)= 0.25391E-01
  rms(prec ) = 0.33259E-01
  weight for this iteration     100.00

 eigenvalues of (default mixing * dielectric matrix)
  average eigenvalue GAMMA=   1.4541
  3.9400  2.3292  1.6234  1.0658  1.0658  0.9400  0.8358  0.6444  0.6420

 Free energy of the ion-electron system (eV)
  ---------------------------------------------------
  alpha Z        PSCENC =       648.78857340
  Ewald energy   TEWEN  =     -6938.04979133
  -Hartree energ DENC   =    -30250.92029184
  -exchange      EXHF   =         0.00000000
  -V(xc)+E(xc)   XCENC  =      1769.50214077
  PAW double counting   =     27648.62269064   -26989.05575276
  entropy T*S    EENTRO =        -0.00000000
  eigenvalues    EBANDS =     -5416.65444726
  atomic energy  EATOM  =     38653.15601086
  Solvation  Ediel_sol  =         0.00000000
  ---------------------------------------------------
  free energy    TOTEN  =      -874.61086751 eV

  energy without entropy =     -874.61086751  energy(sigma->0) =     -874.61086751


--------------------------------------------------------------------------------------------------------




--------------------------------------- Iteration      1(  15)  ---------------------------------------


    POTLOK:  cpu time    0.7653: real time    0.7772
    SETDIJ:  cpu time    0.9233: real time    0.9262
     EDDAV:  cpu time   25.4963: real time   26.0369
       DOS:  cpu time    0.0003: real time    0.0003
    CHARGE:  cpu time    2.1354: real time    2.1904
    MIXING:  cpu time    0.0254: real time    0.0256
    --------------------------------------------
      LOOP:  cpu time   29.3460: real time   29.9567

 eigenvalue-minimisations  :  2048
 total energy-change (2. order) :-0.1841288E-01  (-0.1416094E-02)
 number of electron     622.0000002 magnetization       0.0522790
 augmentation part       58.7888640 magnetization       0.0451356

 Broyden mixing:
  rms(total) = 0.13615E-01    rms(broyden)= 0.13596E-01
  rms(prec ) = 0.18298E-01
  weight for this iteration     100.00

 eigenvalues of (default mixing * dielectric matrix)
  average eigenvalue GAMMA=   1.4854
  4.0029  2.3799  2.3799  1.1460  1.1460  0.8955  0.8955  0.7383  0.6352  0.6352

 Free energy of the ion-electron system (eV)
  ---------------------------------------------------
  alpha Z        PSCENC =       648.78857340
  Ewald energy   TEWEN  =     -6938.04979133
  -Hartree energ DENC   =    -30245.48937787
  -exchange      EXHF   =         0.00000000
  -V(xc)+E(xc)   XCENC  =      1769.33484985
  PAW double counting   =     27658.18855430   -26998.65157542
  entropy T*S    EENTRO =        -0.00000000
  eigenvalues    EBANDS =     -5421.90652419
  atomic energy  EATOM  =     38653.15601086
  Solvation  Ediel_sol  =         0.00000000
  ---------------------------------------------------
  free energy    TOTEN  =      -874.62928040 eV

  energy without entropy =     -874.62928040  energy(sigma->0) =     -874.62928040


--------------------------------------------------------------------------------------------------------




--------------------------------------- Iteration      1(  16)  ---------------------------------------
[...]
      -0.000029927304026      -0.000093101207225      -0.000673801726637
       0.000468653115139       0.000422130088993      -0.000430442474642
       0.000759720975147       0.000973096679538      -0.000509257522883
       0.000602601402203      -0.000513482078719      -0.000741718003493
       0.000356734185610      -0.000198441333842      -0.000228806807421
      -0.000901936475413      -0.000254451481469      -0.000791181870835
      -0.000219164187788      -0.000093008437010      -0.000360753320714
       0.000129686607297       0.000266850841895      -0.000064681184316
       0.000512784564978      -0.000215765441938      -0.000050664117677
       0.000236535692253      -0.000063669703778       0.000597181376757
       0.000328572556699      -0.000287689876862      -0.000376767375142
       0.000616255871813      -0.000080177459716      -0.000718792229139
       0.000395076510223      -0.000406454198412      -0.000422565904667
      -0.000284135702702       0.000136484023067      -0.000820677556182
       0.000137593450213       0.000110949203505      -0.000726317782345
      -0.001068621021434       0.000967698877776       0.000013655721465
       0.000068130896215       0.000077804041493      -0.000251291600412
      -0.000305843029585      -0.000026870478317       0.000010984836297
       0.000091317100735       0.000161254210889       0.000045847921291
       0.000113145931263       0.000107571351211      -0.000873859087378
       0.000079291750704      -0.000662909018267      -0.000659120614630
       0.000091799650378      -0.000707984031660      -0.000284699109328
      -0.000454287290673      -0.000304769066857      -0.000701422953810
      -0.000208138179208      -0.000055918077361      -0.000247415980611
      -0.000047315412949      -0.000234691016164      -0.000507809060994
       0.000394380203529       0.000019613269773      -0.000949220870322
      -0.000590023869180      -0.000525456242376      -0.000068458334844
      -0.000194317675402       0.000259871781486      -0.000116492934341
      -0.000300691092920      -0.000411155046025      -0.000523453204774
       0.000208105214639       0.000333898052841      -0.000511735663833
       0.000245477042572       0.000431446783323      -0.000615515619234
       0.000629764471771      -0.000939213615209       0.000982985663265
       0.000569688576691       0.000206522143509      -0.000897074985908
      -0.000391375373169      -0.000412261698067      -0.000745545991004
       0.000715883368110       0.000243875179019      -0.000012828804137
       0.000023939046149      -0.000210747825861      -0.000272754975041
       0.000120432272033      -0.000115958679026      -0.000959331404647
      -0.000043962939824       0.000969807385149      -0.000621501266719
      -0.000186439234323      -0.000101571136880       0.000028578173700
       0.000419018811848       0.000494670242254      -0.000428172216020
      -0.000135911110970       0.000069834737176      -0.000484669142298
      -0.000067311230912      -0.000132824089401      -0.000468903842684
       0.000028584127315      -0.000114224810478      -0.000507135120519
      -0.000472332418723       0.000034513809161      -0.000409326021922
       0.000189910323577      -0.000214290612699       0.000046053395650
      -0.000286003515841      -0.000069505698537      -0.000073107820447
       0.000561674191471       0.000099508795564      -0.000419143719442
       0.000027411213865      -0.000138509677065      -0.000657820458151
       0.000993935546774      -0.001257513108959      -0.000368416451577
       0.000010748653792       0.000245303868355      -0.000455674967589
      -0.000046825742188      -0.000180243013903      -0.000466381042776
      -0.001017446536467      -0.000101636739230       0.000099960678602
       0.000312013175340      -0.000316328030849      -0.000473144739778
       0.000505848798431       0.000465893611975      -0.000294004158093
      -0.000119097332656       0.000206502104480      -0.000664178785642
       0.000315651827412      -0.000252573660706      -0.000354578489355
      -0.000300404937408      -0.000144359860688      -0.000732615668848
       0.000124429826314       0.000388840754547      -0.001176906049800
       0.000025975642165       0.000062340897113      -0.000340015062438
       0.000305794281994       0.000084612006310       0.000261178316052
       0.000314247037950       0.000165814707911      -0.000872903345294
       0.017351625666572      -0.018782188941110       0.049258345307573
       0.000395794086127      -0.000410983049427      -0.000016889284824
      -0.000202282136016      -0.000057995958374      -0.000339640549215
       0.000184181396765       0.000008708596862      -0.000206873074480
       0.000031258850042      -0.000026608901206      -0.000638005108097
      -0.000276340418415      -0.000302057820127      -0.000621537873118
       0.000323022281571       0.000009993045247      -0.000252787010131
      -0.000648989288676      -0.000399998572506      -0.000928250321010
       0.000713430899859       0.000145963087642       0.000075608515226
       0.000111713761948      -0.000017612844307      -0.000400409427104
       0.000128565354527      -0.000189626303857      -0.000626320835469
      -0.000078805782090      -0.000032387699768      -0.000351330584872
       0.000063040464128      -0.000641661457783      -0.000089270105775
       0.000054444049862      -0.000147140409653      -0.001122052781926
       0.000040590785086       0.000324788595465      -0.000123601928216
      -0.000040518535298      -0.000340029462758      -0.000408814917010
       0.000133266485023       0.000222318908864      -0.000681761938092
       0.000678106246590       0.000067943429607       0.000188706155364
      -0.000024851616109      -0.000023418959411      -0.000197874513880
      -0.000251718739179      -0.000053660288010      -0.000457750993919
      -0.000516570768652      -0.000455757067113       0.000024773726854
       0.000550059123862      -0.000289696027130      -0.000276284320158
      -0.000230425556661       0.000333981697767      -0.001078522394173
      -0.000329291499984      -0.000066139491438      -0.000552282962757
       0.000158399547416      -0.001011558703923      -0.000097385577498
       0.000428035648323       0.000434350215927      -0.000783193118858
      -0.000408162320169      -0.000408386915147      -0.000131977625881
       0.000134001813007       0.000229945707161      -0.000762865463972
       0.000260449933059      -0.000276959616700      -0.000300140377999
      -0.000535873955902      -0.000738948458344      -0.000308999206464
       0.000359279399357      -0.000168565035818      -0.000593048821420
       0.000145883319301       0.000171127446000       0.000500946182713
       0.000005713627863       0.000022207411926      -0.000292410218934
       0.000056743700682      -0.000195901836924      -0.001244237827478
       0.000324622690565      -0.000387764939186      -0.000073171470326
      -0.000001841089289       0.000446318865840      -0.000405216985458
      -0.000211675691631      -0.000310802643952      -0.000918316093903
       0.000251764909422       0.000152051334577      -0.000538969785833
      -0.000052334511483      -0.000347974979386      -0.000384313022551
      -0.001996784525511      -0.000196606656974      -0.001542256026881
       0.015113686243792      -0.012962256507274       0.016064781927205
      -0.037575754309690       0.038818379200969      -0.020189482831012
DYMAT: ------------------------------
DYMAT: DEGREE OF FREEDOM  73  1  1
DYMAT: ------------------------------
DYMAT: DEGREE OF FREEDOM  73  2  2
DYMAT: ------------------------------
DYMAT: DEGREE OF FREEDOM  73  3  3
DYMAT: ------------------------------
DYMAT: DEGREE OF FREEDOM 113  1  4
DYMAT: ------------------------------
DYMAT: DEGREE OF FREEDOM 113  2  5
DYMAT: ------------------------------
DYMAT: DEGREE OF FREEDOM 113  3  6
DYMAT: ------------------------------
DYMAT: DEGREE OF FREEDOM 114  1  7
DYMAT: ------------------------------
DYMAT: DEGREE OF FREEDOM 114  2  8
DYMAT: ------------------------------
DYMAT: DEGREE OF FREEDOM 114  3  9
DYMAT: LEAVING
 stress matrix after NEB project (eV)
    -22.98758     -0.35142      0.66659
     -0.35142    -23.83277     -1.43467
      0.66659     -1.43467    -27.98373
  FORCES: max atom, RMS     0.057675    0.007909
  FORCE total and by dimension    0.084445    0.049258
  Stress total and by dimension   43.413954   27.983727


--------------------------------------------------------------------------------------------------------


     LOOP+:  cpu time  316.9647: real time  319.7234
    4ORBIT:  cpu time    0.0000: real time    0.0000
 


 total charge     
 
# of ion       s       p       d       tot
------------------------------------------
    1        1.573   3.695   0.000   5.268
    2        1.572   3.704   0.000   5.276
    3        1.576   3.700   0.000   5.277
    4        1.573   3.696   0.000   5.269
    5        1.572   3.703   0.000   5.275
    6        1.574   3.665   0.000   5.240
    7        1.575   3.706   0.000   5.280
    8        1.575   3.669   0.000   5.245
    9        1.577   3.671   0.000   5.248
   10        1.572   3.699   0.000   5.270
   11        1.574   3.697   0.000   5.271
   12        1.576   3.689   0.000   5.265
   13        1.569   3.716   0.000   5.286
   14        1.575   3.657   0.000   5.232
   15        1.570   3.722   0.000   5.293
   16        1.575   3.635   0.000   5.210
   17        1.575   3.686   0.000   5.260
   18        1.575   3.663   0.000   5.238
   19        1.573   3.707   0.000   5.280
   20        1.576   3.700   0.000   5.276
   21        1.578   3.700   0.000   5.278
   22        1.574   3.699   0.000   5.273
   23        1.577   3.702   0.000   5.279
   24        1.575   3.702   0.000   5.277
   25        1.574   3.703   0.000   5.277
   26        1.579   3.658   0.000   5.238
   27        1.576   3.653   0.000   5.229
   28        1.575   3.703   0.000   5.278
   29        1.576   3.711   0.000   5.286
   30        1.576   3.701   0.000   5.277
   31        1.575   3.709   0.000   5.284
   32        1.579   3.667   0.000   5.246
   33        1.576   3.702   0.000   5.278
   34        1.576   3.701   0.000   5.277
   35        1.576   3.705   0.000   5.281
   36        1.576   3.697   0.000   5.274
   37        1.573   3.710   0.000   5.284
   38        1.575   3.641   0.000   5.216
   39        1.570   3.735   0.000   5.305
   40        1.570   3.722   0.000   5.292
   41        1.571   3.727   0.000   5.298
   42        1.574   3.706   0.000   5.280
   43        1.573   3.717   0.000   5.290
   44        1.574   3.635   0.000   5.210
   45        1.577   3.700   0.000   5.277
   46        1.573   3.707   0.000   5.280
   47        1.570   3.720   0.000   5.291
   48        1.572   3.716   0.000   5.288
   49        1.575   3.694   0.000   5.269
   50        1.570   3.720   0.000   5.290
   51        1.575   3.711   0.000   5.286
   52        1.578   3.690   0.000   5.268
   53        1.575   3.700   0.000   5.275
   54        1.576   3.676   0.000   5.252
   55        1.574   3.708   0.000   5.282
   56        1.573   3.702   0.000   5.276
   57        1.579   3.659   0.000   5.238
   58        1.574   3.693   0.000   5.267
   59        1.576   3.687   0.000   5.263
   60        1.574   3.707   0.000   5.281
   61        1.577   3.660   0.000   5.237
   62        1.568   3.724   0.000   5.293
   63        1.573   3.704   0.000   5.276
   64        1.576   3.689   0.000   5.265
   65        1.571   3.709   0.000   5.280
   66        1.577   3.656   0.000   5.233
   67        1.573   3.691   0.000   5.264
   68        1.576   3.699   0.000   5.275
   69        1.570   3.719   0.000   5.289
   70        1.570   3.723   0.000   5.293
   71        1.576   3.684   0.000   5.260
   72        1.576   3.655   0.000   5.231
   73        1.640   3.517   0.000   5.157
   74        0.639   0.990   0.000   1.629
   75        0.644   0.992   0.000   1.636
   76        0.647   1.003   0.000   1.650
   77        0.637   0.984   0.000   1.620
   78        0.641   0.994   0.000   1.635
   79        0.645   0.990   0.000   1.635
   80        0.639   0.989   0.000   1.627
   81        0.645   0.996   0.000   1.641
   82        0.638   0.985   0.000   1.623
   83        0.640   0.992   0.000   1.632
   84        0.641   0.996   0.000   1.637
   85        0.642   1.001   0.000   1.644
   86        0.645   0.992   0.000   1.637
   87        0.639   0.987   0.000   1.625
   88        0.640   0.991   0.000   1.631
   89        0.639   0.989   0.000   1.629
   90        0.643   0.993   0.000   1.636
   91        0.641   0.993   0.000   1.635
   92        0.646   0.996   0.000   1.642
   93        0.641   0.994   0.000   1.635
   94        0.640   0.991   0.000   1.631
   95        0.644   0.989   0.000   1.633
   96        0.643   0.989   0.000   1.632
   97        0.639   0.981   0.000   1.620
   98        0.642   0.999   0.000   1.641
   99        0.645   0.993   0.000   1.638
  100        0.643   0.991   0.000   1.634
  101        0.646   0.994   0.000   1.640
  102        0.642   0.991   0.000   1.633
  103        0.641   0.995   0.000   1.636
  104        0.642   0.992   0.000   1.635
  105        0.640   0.988   0.000   1.628
  106        0.638   0.987   0.000   1.625
  107        0.341   0.452   0.000   0.793
  108        0.341   0.454   0.000   0.795
  109        0.340   0.453   0.000   0.793
  110        0.111   0.063   9.212   9.386
  111        0.124   0.080   9.211   9.415
  112        0.201   0.115   9.123   9.438
  113        1.354   2.381   0.000   3.735
  114        0.929   1.687   0.000   2.616
--------------------------------------------------
tot        139.911 307.918  27.545 475.375
 


 magnetization (x)
 
# of ion       s       p       d       tot
------------------------------------------
    1        0.000  -0.000   0.000  -0.000
    2       -0.000  -0.000   0.000  -0.000
    3       -0.000   0.000   0.000   0.000
    4        0.000  -0.000   0.000   0.000
    5        0.000   0.000   0.000   0.000
    6       -0.000  -0.000   0.000  -0.000
    7       -0.000   0.000   0.000   0.000
    8       -0.000   0.000   0.000   0.000
    9        0.000  -0.000   0.000  -0.000
   10       -0.000   0.000   0.000   0.000
   11       -0.000  -0.000   0.000  -0.000
   12        0.000   0.000   0.000   0.000
   13       -0.000  -0.000   0.000  -0.000
   14       -0.000  -0.000   0.000  -0.000
   15       -0.000  -0.000   0.000  -0.000
   16        0.000  -0.000   0.000  -0.000
   17       -0.000  -0.000   0.000  -0.000
   18       -0.000  -0.000   0.000  -0.000
   19        0.000  -0.000   0.000  -0.000
   20       -0.000  -0.000   0.000  -0.000
   21       -0.000   0.000   0.000  -0.000
   22        0.000   0.000   0.000   0.000
   23        0.000   0.000   0.000   0.000
   24        0.000  -0.000   0.000   0.000
   25        0.000   0.000   0.000   0.000
   26        0.000   0.000   0.000   0.000
   27       -0.000   0.000   0.000   0.000
   28        0.000   0.000   0.000   0.000
   29        0.000   0.000   0.000   0.000
   30       -0.000   0.000   0.000   0.000
   31       -0.000  -0.000   0.000  -0.000
   32       -0.000   0.000   0.000   0.000
   33        0.000   0.000   0.000   0.000
   34       -0.000   0.000   0.000   0.000
   35       -0.000   0.000   0.000  -0.000
   36        0.000   0.000   0.000   0.000
   37        0.000   0.000   0.000   0.000
   38       -0.000  -0.000   0.000  -0.000
   39       -0.000   0.000   0.000   0.000
   40        0.000   0.000   0.000   0.000
   41       -0.000   0.000   0.000   0.000
   42        0.000  -0.000   0.000   0.000
   43       -0.000  -0.000   0.000  -0.000
   44        0.000   0.000   0.000   0.000
   45       -0.000  -0.000   0.000  -0.000
   46       -0.000  -0.000   0.000  -0.000
   47        0.000  -0.000   0.000   0.000
   48       -0.000   0.000   0.000   0.000
   49        0.000   0.000   0.000   0.000
   50        0.000  -0.000   0.000  -0.000
   51        0.000  -0.000   0.000  -0.000
   52       -0.000   0.000   0.000   0.000
   53        0.000   0.000   0.000   0.000
   54        0.000  -0.000   0.000  -0.000
   55        0.000   0.000   0.000   0.000
   56       -0.000   0.000   0.000  -0.000
   57       -0.000   0.000   0.000   0.000
   58        0.000   0.000   0.000   0.000
   59        0.000  -0.000   0.000   0.000
   60       -0.000  -0.000   0.000  -0.000
   61        0.000   0.000   0.000   0.000
   62        0.000   0.000   0.000   0.000
   63       -0.000   0.000   0.000  -0.000
   64       -0.000   0.000   0.000   0.000
   65       -0.000   0.000   0.000   0.000
   66        0.000   0.000   0.000   0.000
   67       -0.000  -0.000   0.000  -0.000
   68        0.000   0.000   0.000   0.000
   69        0.000  -0.000   0.000  -0.000
   70        0.000  -0.000   0.000  -0.000
   71       -0.000   0.000   0.000   0.000
   72        0.000   0.000   0.000   0.000
   73       -0.000  -0.000   0.000  -0.000
   74        0.000   0.000   0.000   0.000
   75       -0.000  -0.000   0.000  -0.000
   76       -0.000  -0.000   0.000  -0.000
   77        0.000  -0.000   0.000  -0.000
   78        0.000  -0.000   0.000  -0.000
   79        0.000   0.000   0.000   0.000
   80       -0.000   0.000   0.000   0.000
   81        0.000   0.000   0.000   0.000
   82       -0.000  -0.000   0.000  -0.000
   83        0.000   0.000   0.000   0.000
   84       -0.000  -0.000   0.000  -0.000
   85       -0.000  -0.000   0.000  -0.000
   86       -0.000  -0.000   0.000  -0.000
   87       -0.000  -0.000   0.000  -0.000
   88       -0.000  -0.000   0.000  -0.000
   89        0.000   0.000   0.000   0.000
   90       -0.000  -0.000   0.000  -0.000
   91       -0.000  -0.000   0.000  -0.000
   92        0.000  -0.000   0.000  -0.000
   93       -0.000  -0.000   0.000  -0.000
   94       -0.000  -0.000   0.000  -0.000
   95        0.000   0.000   0.000   0.000
   96        0.000   0.000   0.000   0.000
   97       -0.000  -0.000   0.000  -0.000
   98        0.000  -0.000   0.000  -0.000
   99        0.000   0.000   0.000   0.000
  100       -0.000  -0.000   0.000  -0.000
  101       -0.000  -0.000   0.000  -0.000
  102       -0.000  -0.000   0.000  -0.000
  103       -0.000  -0.000   0.000  -0.000
  104        0.000   0.000   0.000   0.000
  105       -0.000  -0.000   0.000  -0.000
  106       -0.000  -0.000   0.000  -0.000
  107       -0.000  -0.000   0.000  -0.000
  108        0.000  -0.000   0.000  -0.000
  109        0.000   0.000   0.000   0.000
  110        0.000   0.000  -0.000  -0.000
  111        0.000   0.000  -0.000  -0.000
  112        0.000   0.000   0.000   0.000
  113       -0.000   0.000   0.000   0.000
  114        0.000  -0.000   0.000  -0.000
--------------------------------------------------
tot          0.000  -0.000  -0.000  -0.000
 

 total amount of memory used by VASP MPI-rank0   214872. kBytes
=======================================================================

   base      :      30000. kBytes
   nonlr-proj:      18802. kBytes
   fftplans  :      63994. kBytes
   grid      :      62827. kBytes
   one-center:        902. kBytes
   wavefun   :      38347. kBytes
 
  
  
 General timing and accounting informations for this job:
 ========================================================
  
                  Total CPU time used (sec):     3404.111
                            User time (sec):     3286.273
                          System time (sec):      117.837
                         Elapsed time (sec):     3431.414
  
                   Maximum memory used (kb):      330732.
                   Average memory used (kb):           0.
  
                          Minor page faults:      5779349
                          Major page faults:            0
                 Voluntary context switches:         1780
