    3    3   10    2
  0.7971799E+03  0.1367500E-08  0.1367500E-08  0.1476700E-08  0.0000000E+00
  1.000000000000000E-004
  CAR 
 zeolite                                 
     16      1     16
 
  0.0000000E+00  0.0000000E+00  0.0000000E+00  0.1000000E+01
    1      -28.359028    -28.359028   1.000000   1.000000
    2      -20.440358    -20.440358   1.000000   1.000000
    3      -13.261503    -13.261503   1.000000   1.000000
    4      -11.513149    -11.513149   1.000000   1.000000
    5      -11.451561    -11.451561   1.000000   1.000000
    6      -11.451430    -11.451430   1.000000   1.000000
    7       -7.366055     -7.366055   1.000000   1.000000
    8       -7.366017     -7.366017   1.000000   1.000000
    9       -1.893808     -1.893808   0.000000   0.000000
   10       -1.893739     -1.893739   0.000000   0.000000
   11       -0.614273     -0.614273   0.000000   0.000000
   12        0.258976      0.258976   0.000000   0.000000
   13        0.367144      0.367144   0.000000   0.000000
   14        0.555295      0.555295   0.000000   0.000000
   15        0.756061      0.756061   0.000000   0.000000
   16        0.760673      0.760673   0.000000   0.000000
