>>>  VASP 5.4.4 with BEEF-vdw and vtst
--------------------------------------------------------
>>>  Job information
     SLURM_JOBID=8844102
     SLURM_JOB_NODELIST=cpn-u25-38
     SLURM_NNODES=1
     SLURMTMPDIR=/scratch/8844102
     working directory = /projects/academic/ericwalk/ruthbell/Ads_Ag-SSZ13/COS_gas/vtst
--------------------------------------------------------
>>>  Module information
--------------------------------------------------------
>>>  Running Configuration
NPROCS=16
--------------------------------------------------------
>>>  Job started at Wed Jul  6 01:49:43 EDT 2022
--------------------------------------------------------
 running on   16 total cores
 distrk:  each k-point on   16 cores,    1 groups
 distr:  one band on    4 cores,    4 groups
 using from now: INCAR     
 vasp.5.4.4.18Apr17-6-g9f103f2a35 (build Dec 31 2018 11:41:54) complex          
  
 POSCAR found type information on POSCAR  O  S  C 
 POSCAR found :  3 types and       3 ions
 scaLAPACK will be used

 ----------------------------------------------------------------------------- 
|                                                                             |
|  ADVICE TO THIS USER RUNNING 'VASP/VAMP'   (HEAR YOUR MASTER'S VOICE ...):  |
|                                                                             |
|      You have a (more or less) 'small supercell' and for smaller cells      |
|      it is recommended  to use the reciprocal-space projection scheme!      |
|      The real space optimization is not  efficient for small cells and it   |
|      is also less accurate ...                                              |
|      Therefore set LREAL=.FALSE. in the  INCAR file                         |
|                                                                             |
 ----------------------------------------------------------------------------- 

 LDA part: xc-table for Pade appr. of Perdew
 POSCAR found type information on POSCAR  O  S  C 
 POSCAR found :  3 types and       3 ions
 POSCAR, INCAR and KPOINTS ok, starting setup
 FFT: planning ...
 WAVECAR not read
 entering main loop
       N       E                     dE             d eps       ncg     rms          rms(c)
DAV:   1     0.891668198806E+02    0.89167E+02   -0.35873E+03    96   0.397E+02
DAV:   2    -0.108550182396E+01   -0.90252E+02   -0.85955E+02    96   0.111E+02
DAV:   3    -0.189488107283E+02   -0.17863E+02   -0.17477E+02    96   0.549E+01
DAV:   4    -0.201305339388E+02   -0.11817E+01   -0.11319E+01    80   0.136E+01
DAV:   5    -0.201532723363E+02   -0.22738E-01   -0.22728E-01    64   0.224E+00    0.108E+01
DAV:   6    -0.119848025046E+02    0.81685E+01   -0.99367E+00    72   0.194E+01    0.393E+00
DAV:   7    -0.158664966014E+02   -0.38817E+01   -0.23597E+00    72   0.828E+00    0.204E+00
DAV:   8    -0.184655511082E+02   -0.25991E+01   -0.14365E+00    80   0.486E+00    0.842E-01
DAV:   9    -0.189342139137E+02   -0.46866E+00   -0.81685E-02    80   0.159E+00    0.493E-01
DAV:  10    -0.193622640341E+02   -0.42805E+00   -0.58642E-02    64   0.100E+00    0.233E-01
DAV:  11    -0.197019025039E+02   -0.33964E+00   -0.33849E-02    80   0.702E-01    0.114E-01
DAV:  12    -0.197533215692E+02   -0.51419E-01   -0.33080E-03    96   0.273E-01    0.722E-02
DAV:  13    -0.198149335957E+02   -0.61612E-01   -0.46682E-03    88   0.256E-01    0.400E-02
DAV:  14    -0.198337127895E+02   -0.18779E-01   -0.75396E-04    88   0.107E-01    0.170E-02
DAV:  15    -0.198394850367E+02   -0.57722E-02   -0.21520E-04    72   0.583E-02    0.857E-03
DAV:  16    -0.198407389619E+02   -0.12539E-02   -0.10738E-04    88   0.426E-02    0.538E-03
DAV:  17    -0.198407652555E+02   -0.26294E-04   -0.23743E-05    72   0.244E-02    0.440E-03
DAV:  18    -0.198412756090E+02   -0.51035E-03   -0.49267E-05    88   0.280E-02    0.311E-03
DAV:  19    -0.198418258913E+02   -0.55028E-03   -0.10038E-05    72   0.146E-02    0.178E-03
DAV:  20    -0.198421754562E+02   -0.34956E-03   -0.27255E-06    72   0.857E-03    0.101E-03
DAV:  21    -0.198422845356E+02   -0.10908E-03   -0.13595E-06    80   0.563E-03    0.538E-04
DAV:  22    -0.198422762549E+02    0.82807E-05   -0.33662E-07    72   0.283E-03    0.367E-04
DAV:  23    -0.198422947794E+02   -0.18525E-04   -0.16730E-07    64   0.221E-03    0.244E-04
DAV:  24    -0.198423105558E+02   -0.15776E-04   -0.21630E-07    72   0.207E-03    0.215E-04
DAV:  25    -0.198423131314E+02   -0.25756E-05   -0.43276E-08    72   0.921E-04    0.173E-04
DAV:  26    -0.198423149211E+02   -0.17897E-05   -0.18086E-08    72   0.627E-04    0.796E-05
DAV:  27    -0.198423155132E+02   -0.59212E-06   -0.10076E-08    72   0.413E-04    0.799E-05
DAV:  28    -0.198423158859E+02   -0.37265E-06   -0.18497E-09    80   0.212E-04    0.693E-05
DAV:  29    -0.198423162466E+02   -0.36070E-06   -0.18841E-09    72   0.221E-04    0.630E-05
DAV:  30    -0.198423162996E+02   -0.53075E-07    0.15940E-10    56   0.713E-05    0.627E-05
DAV:  31    -0.198423163192E+02   -0.19599E-07    0.24506E-10    48   0.541E-05    0.625E-05
DAV:  32    -0.198423163252E+02   -0.59101E-08    0.26856E-10    48   0.347E-05
   1 F= -.19842316E+02 E0= -.19842316E+02  d E =-.198423E+02  mag=     0.0000
quench:  g(F)=  0.000E+00 g(S)=  0.000E+00 dE (1.order)= 0.000E+00
 bond charge predicted
       N       E                     dE             d eps       ncg     rms          rms(c)
DAV:   1    -0.198423091006E+02    0.72186E-05   -0.54740E-03    64   0.526E-01    0.994E-03
DAV:   2    -0.198423095912E+02   -0.49062E-06   -0.57713E-05    64   0.543E-02    0.610E-03
DAV:   3    -0.198423098896E+02   -0.29834E-06   -0.74770E-07    80   0.785E-03    0.316E-03
DAV:   4    -0.198423119933E+02   -0.21037E-05   -0.57620E-07    96   0.599E-03    0.575E-04
DAV:   5    -0.198423121159E+02   -0.12258E-06   -0.61618E-08    80   0.170E-03    0.420E-04
DAV:   6    -0.198423121957E+02   -0.79819E-07   -0.47036E-09    64   0.501E-04    0.116E-04
DAV:   7    -0.198423122430E+02   -0.47324E-07   -0.11986E-09    80   0.234E-04    0.836E-05
DAV:   8    -0.198423123780E+02   -0.13496E-06   -0.23253E-09    64   0.194E-04    0.671E-05
DAV:   9    -0.198423124774E+02   -0.99400E-07   -0.12936E-09    80   0.158E-04    0.656E-05
DAV:  10    -0.198423125987E+02   -0.12132E-06   -0.12301E-09    80   0.146E-04    0.630E-05
DAV:  11    -0.198423126448E+02   -0.46075E-07    0.12872E-10    80   0.668E-05    0.628E-05
DAV:  12    -0.198423126737E+02   -0.28944E-07    0.18529E-10    64   0.651E-05    0.626E-05
DAV:  13    -0.198423126913E+02   -0.17537E-07    0.24618E-10    64   0.542E-05    0.625E-05
DAV:  14    -0.198423126975E+02   -0.62311E-08    0.31403E-10    48   0.308E-05
   2 F= -.19842313E+02 E0= -.19842313E+02  d E =0.362766E-05  mag=     0.0000
quench:  g(F)=  0.000E+00 g(S)=  0.000E+00 dE (1.order)= 0.000E+00
 bond charge predicted
       N       E                     dE             d eps       ncg     rms          rms(c)
DAV:   1    -0.198423068870E+02    0.58043E-05   -0.10946E-02    64   0.747E-01    0.135E-02
DAV:   2    -0.198423094759E+02   -0.25889E-05   -0.11088E-04    64   0.772E-02    0.837E-03
DAV:   3    -0.198423101943E+02   -0.71839E-06   -0.13985E-06    80   0.105E-02    0.423E-03
DAV:   4    -0.198423137894E+02   -0.35952E-05   -0.10304E-06    96   0.810E-03    0.770E-04
DAV:   5    -0.198423139978E+02   -0.20841E-06   -0.11581E-07    64   0.237E-03    0.577E-04
DAV:   6    -0.198423140997E+02   -0.10189E-06   -0.95091E-09    64   0.721E-04    0.129E-04
DAV:   7    -0.198423141473E+02   -0.47547E-07   -0.20117E-09    80   0.308E-04    0.960E-05
DAV:   8    -0.198423143051E+02   -0.15783E-06   -0.27871E-09    64   0.213E-04    0.698E-05
DAV:   9    -0.198423144348E+02   -0.12974E-06   -0.20252E-09    80   0.190E-04    0.680E-05
DAV:  10    -0.198423145942E+02   -0.15934E-06   -0.19467E-09    80   0.169E-04    0.633E-05
DAV:  11    -0.198423146458E+02   -0.51654E-07    0.40785E-11    80   0.658E-05    0.629E-05
DAV:  12    -0.198423146826E+02   -0.36790E-07    0.56994E-11    48   0.742E-05    0.627E-05
DAV:  13    -0.198423146938E+02   -0.11151E-07    0.22510E-10    64   0.539E-05    0.626E-05
DAV:  14    -0.198423147036E+02   -0.98419E-08    0.28865E-10    48   0.333E-05
   3 F= -.19842315E+02 E0= -.19842315E+02  d E =-.200611E-05  mag=     0.0000
quench:  g(F)=  0.000E+00 g(S)=  0.000E+00 dE (1.order)= 0.000E+00
 bond charge predicted
       N       E                     dE             d eps       ncg     rms          rms(c)
DAV:   1    -0.198422766288E+02    0.38065E-04   -0.11045E-02    64   0.754E-01    0.212E-02
DAV:   2    -0.198422764578E+02    0.17092E-06   -0.16099E-04    64   0.849E-02    0.115E-02
DAV:   3    -0.198422746601E+02    0.17978E-05   -0.28575E-06    80   0.171E-02    0.615E-03
DAV:   4    -0.198422771983E+02   -0.25382E-05   -0.26002E-06    80   0.112E-02    0.147E-03
DAV:   5    -0.198422776699E+02   -0.47163E-06   -0.13813E-07    96   0.262E-03    0.765E-04
DAV:   6    -0.198422781561E+02   -0.48614E-06   -0.21015E-08    64   0.935E-04    0.276E-04
DAV:   7    -0.198422785958E+02   -0.43974E-06   -0.12649E-08    80   0.560E-04    0.155E-04
DAV:   8    -0.198422795643E+02   -0.96846E-06   -0.37452E-08    64   0.727E-04    0.120E-04
DAV:   9    -0.198422800210E+02   -0.45677E-06   -0.90767E-09    80   0.425E-04    0.833E-05
DAV:  10    -0.198422805209E+02   -0.49988E-06   -0.10071E-08    80   0.370E-04    0.652E-05
DAV:  11    -0.198422806559E+02   -0.13494E-06   -0.48028E-10    80   0.116E-04    0.624E-05
DAV:  12    -0.198422808534E+02   -0.19754E-06   -0.16814E-09    80   0.175E-04    0.604E-05
DAV:  13    -0.198422809107E+02   -0.57309E-07    0.15480E-10    64   0.763E-05    0.600E-05
DAV:  14    -0.198422809543E+02   -0.43554E-07    0.26804E-10    48   0.576E-05    0.594E-05
DAV:  15    -0.198422809883E+02   -0.34026E-07    0.26881E-10    48   0.571E-05    0.594E-05
DAV:  16    -0.198422809945E+02   -0.62462E-08    0.32940E-10    64   0.256E-05
   4 F= -.19842281E+02 E0= -.19842281E+02  d E =0.337091E-04  mag=    -0.0000
quench:  g(F)=  0.000E+00 g(S)=  0.000E+00 dE (1.order)= 0.000E+00
 bond charge predicted
       N       E                     dE             d eps       ncg     rms          rms(c)
DAV:   1    -0.198423055885E+02   -0.24600E-04   -0.65815E-03    64   0.566E-01    0.201E-02
DAV:   2    -0.198423104757E+02   -0.48872E-05   -0.17337E-04    80   0.856E-02    0.980E-03
DAV:   3    -0.198423099191E+02    0.55657E-06   -0.29386E-06    80   0.161E-02    0.545E-03
DAV:   4    -0.198423120302E+02   -0.21111E-05   -0.23407E-06    80   0.102E-02    0.134E-03
DAV:   5    -0.198423123010E+02   -0.27085E-06   -0.11508E-07    80   0.223E-03    0.695E-04
DAV:   6    -0.198423125011E+02   -0.20005E-06   -0.16988E-08    64   0.828E-04    0.239E-04
DAV:   7    -0.198423126677E+02   -0.16660E-06   -0.66200E-09    64   0.471E-04    0.133E-04
DAV:   8    -0.198423131578E+02   -0.49015E-06   -0.17097E-08    80   0.524E-04    0.111E-04
DAV:   9    -0.198423134825E+02   -0.32466E-06   -0.49522E-09    80   0.328E-04    0.789E-05
DAV:  10    -0.198423137902E+02   -0.30767E-06   -0.60174E-09    64   0.281E-04    0.683E-05
DAV:  11    -0.198423138952E+02   -0.10500E-06   -0.25480E-10    80   0.110E-04    0.648E-05
DAV:  12    -0.198423140326E+02   -0.13741E-06   -0.19277E-09    64   0.148E-04    0.631E-05
DAV:  13    -0.198423140873E+02   -0.54765E-07    0.46425E-11    64   0.753E-05    0.629E-05
DAV:  14    -0.198423141221E+02   -0.34754E-07    0.14217E-10    48   0.619E-05    0.626E-05
DAV:  15    -0.198423141487E+02   -0.26578E-07    0.20731E-10    48   0.556E-05    0.626E-05
DAV:  16    -0.198423141573E+02   -0.86042E-08    0.29383E-10    48   0.320E-05
   5 F= -.19842314E+02 E0= -.19842314E+02  d E =-.331627E-04  mag=     0.0000
quench:  g(F)=  0.000E+00 g(S)=  0.000E+00 dE (1.order)= 0.000E+00
 bond charge predicted
       N       E                     dE             d eps       ncg     rms          rms(c)
DAV:   1    -0.198423106373E+02    0.35114E-05   -0.20642E-03    64   0.197E-01    0.874E-03
DAV:   2    -0.198423150996E+02   -0.44623E-05   -0.71408E-05    64   0.449E-02    0.386E-03
DAV:   3    -0.198423148630E+02    0.23665E-06   -0.17831E-06    96   0.807E-03    0.228E-03
DAV:   4    -0.198423148506E+02    0.12336E-07   -0.50557E-07    80   0.406E-03    0.585E-04
DAV:   5    -0.198423148588E+02   -0.81815E-08   -0.71466E-08    96   0.142E-03
   6 F= -.19842315E+02 E0= -.19842315E+02  d E =-.701544E-06  mag=    -0.0000
quench:  g(F)=  0.000E+00 g(S)=  0.000E+00 dE (1.order)= 0.000E+00
 bond charge predicted
       N       E                     dE             d eps       ncg     rms          rms(c)
DAV:   1    -0.198422963276E+02    0.18523E-04   -0.20017E-03    64   0.209E-01    0.147E-02
DAV:   2    -0.198422939571E+02    0.23705E-05   -0.71911E-05    64   0.568E-02    0.562E-03
DAV:   3    -0.198422947001E+02   -0.74294E-06   -0.44252E-06    96   0.137E-02    0.280E-03
DAV:   4    -0.198422950285E+02   -0.32844E-06   -0.60883E-07    80   0.469E-03    0.111E-03
DAV:   5    -0.198422953122E+02   -0.28367E-06   -0.13610E-07    80   0.198E-03    0.437E-04
DAV:   6    -0.198422953574E+02   -0.45175E-07   -0.21464E-08    64   0.859E-04    0.180E-04
DAV:   7    -0.198422953968E+02   -0.39442E-07   -0.35200E-09    64   0.429E-04    0.110E-04
DAV:   8    -0.198422954768E+02   -0.80039E-07   -0.11186E-09    48   0.193E-04    0.829E-05
DAV:   9    -0.198422956017E+02   -0.12487E-06   -0.37055E-09    64   0.237E-04    0.732E-05
DAV:  10    -0.198422957076E+02   -0.10594E-06   -0.11320E-09    80   0.172E-04    0.707E-05
DAV:  11    -0.198422958204E+02   -0.11271E-06   -0.10551E-09    80   0.137E-04    0.643E-05
DAV:  12    -0.198422958951E+02   -0.74764E-07    0.13118E-11    64   0.793E-05    0.638E-05
DAV:  13    -0.198422959565E+02   -0.61426E-07    0.47162E-12    48   0.789E-05    0.634E-05
DAV:  14    -0.198422959754E+02   -0.18832E-07    0.23583E-10    64   0.543E-05    0.632E-05
DAV:  15    -0.198422959856E+02   -0.10196E-07    0.26589E-10    48   0.345E-05    0.631E-05
DAV:  16    -0.198422959894E+02   -0.38069E-08    0.35462E-10    48   0.220E-05
   7 F= -.19842296E+02 E0= -.19842296E+02  d E =0.188694E-04  mag=    -0.0000
quench:  g(F)=  0.000E+00 g(S)=  0.000E+00 dE (1.order)= 0.000E+00
 bond charge predicted
       N       E                     dE             d eps       ncg     rms          rms(c)
DAV:   1    -0.198423083697E+02   -0.12384E-04   -0.34144E-03    64   0.368E-01    0.180E-02
DAV:   2    -0.198423006329E+02    0.77368E-05   -0.83554E-05    64   0.658E-02    0.936E-03
DAV:   3    -0.198423008092E+02   -0.17633E-06   -0.52469E-06    96   0.173E-02    0.488E-03
DAV:   4    -0.198423004881E+02    0.32117E-06   -0.12869E-06    96   0.718E-03    0.154E-03
DAV:   5    -0.198423004124E+02    0.75603E-07   -0.11882E-07    80   0.245E-03    0.578E-04
DAV:   6    -0.198423005786E+02   -0.16614E-06   -0.47509E-08    64   0.124E-03    0.213E-04
DAV:   7    -0.198423008406E+02   -0.26206E-06   -0.66419E-09    80   0.449E-04    0.147E-04
DAV:   8    -0.198423015859E+02   -0.74521E-06   -0.20736E-08    64   0.562E-04    0.113E-04
DAV:   9    -0.198423020502E+02   -0.46437E-06   -0.51008E-09    80   0.333E-04    0.805E-05
DAV:  10    -0.198423025556E+02   -0.50541E-06   -0.75290E-09    80   0.322E-04    0.696E-05
DAV:  11    -0.198423027883E+02   -0.23270E-06   -0.16409E-09    96   0.167E-04    0.655E-05
DAV:  12    -0.198423029383E+02   -0.15000E-06   -0.41253E-10    80   0.108E-04    0.633E-05
DAV:  13    -0.198423030283E+02   -0.89931E-07   -0.32978E-10    64   0.100E-04    0.629E-05
DAV:  14    -0.198423030603E+02   -0.32052E-07    0.15488E-10    48   0.644E-05    0.628E-05
DAV:  15    -0.198423030916E+02   -0.31233E-07    0.18022E-10    48   0.574E-05    0.626E-05
DAV:  16    -0.198423031031E+02   -0.11572E-07    0.27355E-10    48   0.370E-05    0.626E-05
DAV:  17    -0.198423031067E+02   -0.35873E-08    0.31794E-10    48   0.210E-05
   8 F= -.19842303E+02 E0= -.19842303E+02  d E =-.711734E-05  mag=    -0.0000
quench:  g(F)=  0.000E+00 g(S)=  0.000E+00 dE (1.order)= 0.000E+00
 bond charge predicted
       N       E                     dE             d eps       ncg     rms          rms(c)
DAV:   1    -0.198423106814E+02   -0.75783E-05   -0.42223E-03    64   0.431E-01    0.123E-02
DAV:   2    -0.198423083235E+02    0.23579E-05   -0.38124E-05    64   0.424E-02    0.828E-03
DAV:   3    -0.198423100111E+02   -0.16875E-05   -0.17588E-06    96   0.107E-02    0.359E-03
DAV:   4    -0.198423110829E+02   -0.10718E-05   -0.43956E-07    96   0.522E-03    0.779E-04
DAV:   5    -0.198423110731E+02    0.98053E-08   -0.51489E-08    64   0.161E-03
   9 F= -.19842311E+02 E0= -.19842311E+02  d E =-.796633E-05  mag=    -0.0000
quench:  g(F)=  0.000E+00 g(S)=  0.000E+00 dE (1.order)= 0.000E+00
 bond charge predicted
       N       E                     dE             d eps       ncg     rms          rms(c)
DAV:   1    -0.198422529881E+02    0.58095E-04   -0.46426E-03    64   0.468E-01    0.220E-02
DAV:   2    -0.198422453242E+02    0.76639E-05   -0.73634E-05    64   0.621E-02    0.148E-02
DAV:   3    -0.198422444932E+02    0.83103E-06   -0.67481E-06    96   0.208E-02    0.680E-03
DAV:   4    -0.198422441361E+02    0.35708E-06   -0.18393E-06    96   0.106E-02    0.127E-03
DAV:   5    -0.198422440152E+02    0.12090E-06   -0.13215E-07    96   0.284E-03    0.816E-04
DAV:   6    -0.198422438456E+02    0.16960E-06   -0.11009E-07    80   0.190E-03    0.362E-04
DAV:   7    -0.198422440870E+02   -0.24139E-06   -0.18025E-08    64   0.846E-04    0.209E-04
DAV:   8    -0.198422448594E+02   -0.77248E-06   -0.38114E-08    64   0.825E-04    0.166E-04
DAV:   9    -0.198422454293E+02   -0.56989E-06   -0.90758E-09    80   0.506E-04    0.126E-04
DAV:  10    -0.198422462397E+02   -0.81038E-06   -0.15416E-08    64   0.508E-04    0.793E-05
DAV:  11    -0.198422465931E+02   -0.35339E-06   -0.43618E-09    80   0.248E-04    0.699E-05
DAV:  12    -0.198422468931E+02   -0.30003E-06   -0.28651E-09    96   0.195E-04    0.648E-05
DAV:  13    -0.198422470190E+02   -0.12583E-06   -0.35271E-10    64   0.104E-04    0.637E-05
DAV:  14    -0.198422470999E+02   -0.80969E-07   -0.59979E-11    48   0.900E-05    0.633E-05
DAV:  15    -0.198422471396E+02   -0.39660E-07    0.10940E-10    48   0.692E-05    0.630E-05
DAV:  16    -0.198422471670E+02   -0.27388E-07    0.22352E-10    48   0.562E-05    0.630E-05
DAV:  17    -0.198422471770E+02   -0.10071E-07    0.28989E-10    48   0.344E-05    0.629E-05
DAV:  18    -0.198422471799E+02   -0.28535E-08    0.33953E-10    64   0.207E-05
  10 F= -.19842247E+02 E0= -.19842247E+02  d E =0.638931E-04  mag=    -0.0000
quench:  g(F)=  0.000E+00 g(S)=  0.000E+00 dE (1.order)= 0.000E+00
--------------------------------------------------------
>>>  Job finished at Wed Jul  6 01:54:59 EDT 2022
