 vasp.5.4.4.18Apr17-6-g9f103f2a35 (build Dec 31 2018 11:41:54) complex          
  
 executed on             LinuxIFC date 2022.07.06  01:49:44
 running on   16 total cores
 distrk:  each k-point on   16 cores,    1 groups
 distr:  one band on NCORES_PER_BAND=   4 cores,    4 groups


--------------------------------------------------------------------------------------------------------


 INCAR:
 POTCAR:   PAW_PBE O 08Apr2002                    
 POTCAR:    PAW_PBE S 17Jan2003                   
 POTCAR:   PAW_PBE C 08Apr2002                    
 POTCAR:   PAW_PBE O 08Apr2002                    
   VRHFIN =O: s2p4                                                              
   LEXCH  = PE                                                                  
   EATOM  =   432.3788 eV,   31.7789 Ry                                         
                                                                                
   TITEL  = PAW_PBE O 08Apr2002                                                 
   LULTRA =        F    use ultrasoft PP ?                                      
   IUNSCR =        0    unscreen: 0-lin 1-nonlin 2-no                           
   RPACOR =     .000    partial core radius                                     
   POMASS =   16.000; ZVAL   =    6.000    mass and valenz                      
   RCORE  =    1.520    outmost cutoff radius                                   
   RWIGS  =    1.550; RWIGS  =     .820    wigner-seitz radius (au A)           
   ENMAX  =  400.000; ENMIN  =  300.000 eV                                      
   ICORE  =        2    local potential                                         
   LCOR   =        T    correct aug charges                                     
   LPAW   =        T    paw PP                                                  
   EAUG   =  605.392                                                            
   DEXC   =     .000                                                            
   RMAX   =    2.264    core radius for proj-oper                               
   RAUG   =    1.300    factor for augmentation sphere                          
   RDEP   =    1.550    radius for radial grids                                 
   QCUT   =   -5.520; QGAM   =   11.041    optimization parameters              
                                                                                
   Description                                                                  
     l     E      TYP  RCUT    TYP  RCUT                                        
     0   .000     23  1.200                                                     
     0  -.700     23  1.200                                                     
     1   .000     23  1.520                                                     
     1   .600     23  1.520                                                     
     2   .000      7  1.500                                                     
  local pseudopotential read in
  atomic valenz-charges read in
  non local Contribution for L=           0  read in
    real space projection operators read in
  non local Contribution for L=           0  read in
    real space projection operators read in
  non local Contribution for L=           1  read in
    real space projection operators read in
  non local Contribution for L=           1  read in
    real space projection operators read in
    PAW grid and wavefunctions read in
 
   number of l-projection  operators is LMAX  =           4
   number of lm-projection operators is LMMAX =           8
 
 POTCAR:    PAW_PBE S 17Jan2003                   
   VRHFIN =S : s2p4                                                             
   LEXCH  = PE                                                                  
   EATOM  =   276.8230 eV,   20.3459 Ry                                         
                                                                                
   TITEL  = PAW_PBE S 17Jan2003                                                 
   LULTRA =        F    use ultrasoft PP ?                                      
   IUNSCR =        1    unscreen: 0-lin 1-nonlin 2-no                           
   RPACOR =    1.500    partial core radius                                     
   POMASS =   32.066; ZVAL   =    6.000    mass and valenz                      
   RCORE  =    1.900    outmost cutoff radius                                   
   RWIGS  =    2.200; RWIGS  =    1.164    wigner-seitz radius (au A)           
   ENMAX  =  280.000; ENMIN  =  194.016 eV                                      
   ICORE  =        2    local potential                                         
   LCOR   =        T    correct aug charges                                     
   LPAW   =        T    paw PP                                                  
   EAUG   =  335.092                                                            
   DEXC   =     .000                                                            
   RMAX   =    2.867    core radius for proj-oper                               
   RAUG   =    1.300    factor for augmentation sphere                          
   RDEP   =    1.954    radius for radial grids                                 
   QCUT   =   -4.360; QGAM   =    8.721    optimization parameters              
                                                                                
   Description                                                                  
     l     E      TYP  RCUT    TYP  RCUT                                        
     0   .000     23  1.900                                                     
     0   .000     23  1.900                                                     
     1   .000     23  1.900                                                     
     1   .000     23  1.900                                                     
     2   .000     23  1.900                                                     
  local pseudopotential read in
  partial core-charges read in
  atomic valenz-charges read in
  non local Contribution for L=           0  read in
    real space projection operators read in
  non local Contribution for L=           0  read in
    real space projection operators read in
  non local Contribution for L=           1  read in
    real space projection operators read in
  non local Contribution for L=           1  read in
    real space projection operators read in
    PAW grid and wavefunctions read in
 
   number of l-projection  operators is LMAX  =           4
   number of lm-projection operators is LMMAX =           8
 
 POTCAR:   PAW_PBE C 08Apr2002                    
   VRHFIN =C: s2p2                                                              
   LEXCH  = PE                                                                  
   EATOM  =   147.1560 eV,   10.8157 Ry                                         
                                                                                
   TITEL  = PAW_PBE C 08Apr2002                                                 
   LULTRA =        F    use ultrasoft PP ?                                      
   IUNSCR =        0    unscreen: 0-lin 1-nonlin 2-no                           
   RPACOR =     .000    partial core radius                                     
   POMASS =   12.011; ZVAL   =    4.000    mass and valenz                      
   RCORE  =    1.500    outmost cutoff radius                                   
   RWIGS  =    1.630; RWIGS  =     .863    wigner-seitz radius (au A)           
   ENMAX  =  400.000; ENMIN  =  300.000 eV                                      
   ICORE  =        2    local potential                                         
   LCOR   =        T    correct aug charges                                     
   LPAW   =        T    paw PP                                                  
   EAUG   =  644.873                                                            
   DEXC   =     .000                                                            
   RMAX   =    2.266    core radius for proj-oper                               
   RAUG   =    1.300    factor for augmentation sphere                          
   RDEP   =    1.501    radius for radial grids                                 
   RDEPT  =    1.300    core radius for aug-charge                              
   QCUT   =   -5.516; QGAM   =   11.032    optimization parameters              
                                                                                
   Description                                                                  
     l     E      TYP  RCUT    TYP  RCUT                                        
     0   .000     23  1.200                                                     
     0   .000     23  1.200                                                     
     1   .000     23  1.500                                                     
     1  2.500     23  1.500                                                     
     2   .000      7  1.500                                                     
  local pseudopotential read in
  atomic valenz-charges read in
  non local Contribution for L=           0  read in
    real space projection operators read in
  non local Contribution for L=           0  read in
    real space projection operators read in
  non local Contribution for L=           1  read in
    real space projection operators read in
  non local Contribution for L=           1  read in
    real space projection operators read in
    PAW grid and wavefunctions read in
 
   number of l-projection  operators is LMAX  =           4
   number of lm-projection operators is LMMAX =           8
 

 ----------------------------------------------------------------------------- 
|                                                                             |
|  ADVICE TO THIS USER RUNNING 'VASP/VAMP'   (HEAR YOUR MASTER'S VOICE ...):  |
|                                                                             |
|      You have a (more or less) 'small supercell' and for smaller cells      |
|      it is recommended  to use the reciprocal-space projection scheme!      |
|      The real space optimization is not  efficient for small cells and it   |
|      is also less accurate ...                                              |
|      Therefore set LREAL=.FALSE. in the  INCAR file                         |
|                                                                             |
 ----------------------------------------------------------------------------- 

 Optimization of the real space projectors (new method)

 maximal supplied QI-value         = 24.76
 optimisation between [QCUT,QGAM] = [ 10.15, 20.30] = [ 28.85,115.39] Ry 
 Optimized for a Real-space Cutoff    1.51 Angstroem

   l    n(q)    QCUT    max X(q) W(low)/X(q) W(high)/X(q)  e(spline) 
   0      9    10.150     4.192    0.32E-04    0.13E-04    0.13E-06
   0      9    10.150     8.473    0.18E-03    0.20E-03    0.43E-06
   1      9    10.150     2.474    0.32E-04    0.33E-04    0.64E-07
   1      9    10.150     3.912    0.13E-03    0.16E-03    0.33E-06
 Optimization of the real space projectors (new method)

 maximal supplied QI-value         = 19.84
 optimisation between [QCUT,QGAM] = [ 10.12, 20.44] = [ 28.68,116.96] Ry 
 Optimized for a Real-space Cutoff    1.42 Angstroem

   l    n(q)    QCUT    max X(q) W(low)/X(q) W(high)/X(q)  e(spline) 
   0      9    10.119     5.487    0.15E-04    0.47E-05    0.66E-08
   0      9    10.119    85.627    0.51E-04    0.92E-04    0.63E-07
   1      8    10.119     3.530    0.37E-05    0.76E-05    0.28E-07
   1      8    10.119    42.714    0.16E-03    0.16E-03    0.23E-06
 Optimization of the real space projectors (new method)

 maximal supplied QI-value         = 25.13
 optimisation between [QCUT,QGAM] = [ 10.05, 20.36] = [ 28.30,116.06] Ry 
 Optimized for a Real-space Cutoff    1.38 Angstroem

   l    n(q)    QCUT    max X(q) W(low)/X(q) W(high)/X(q)  e(spline) 
   0      8    10.053     5.582    0.33E-04    0.15E-04    0.75E-07
   0      8    10.053    69.432    0.23E-03    0.38E-03    0.25E-06
   1      8    10.053     2.780    0.76E-04    0.11E-03    0.15E-06
   1      8    10.053     4.549    0.19E-03    0.19E-03    0.27E-06
 PAW_PBE O 08Apr2002                    :
 energy of atom  1       EATOM= -432.3788
 kinetic energy error for atom=    0.1156 (will be added to EATOM!!)
  PAW_PBE S 17Jan2003                   :
 energy of atom  2       EATOM= -276.8230
 kinetic energy error for atom=    0.0046 (will be added to EATOM!!)
 PAW_PBE C 08Apr2002                    :
 energy of atom  3       EATOM= -147.1560
 kinetic energy error for atom=    0.0288 (will be added to EATOM!!)
 
 
 POSCAR: O2                                      
  positions in direct lattice
  velocities in cartesian coordinates
 exchange correlation table for  LEXCH =        8
   RHO(1)=    0.500       N(1)  =     2000
   RHO(2)=  100.500       N(2)  =     4000

 VTST: version 3.2, (02/03/18)

 CHAIN: initializing optimizer
 
 OPT: Using VASP Quick-Min optimizer
 CHAIN: Read ICHAIN            1
 
 POSCAR: O2                                      
  positions in direct lattice
  velocities in cartesian coordinates
 CHAIN: Running the Dynamical Matrix
 


--------------------------------------------------------------------------------------------------------


 ion  position               nearest neighbor table
   1  0.817  0.515  0.682-   3 1.18
   2  0.764  0.531  0.506-   3 1.56
   3  0.794  0.522  0.606-   1 1.18   2 1.56
 
  LATTYP: Found a hexagonal cell.
 ALAT       =    13.6750001907
 C/A-ratio  =     1.0798537472
  
  Lattice vectors:
  
 A1 = (  13.6750001907,   0.0000000000,   0.0000000000)
 A2 = (  -6.8375000954,  11.8428975619,   0.0000000000)
 A3 = (   0.0000000000,   0.0000000000,  14.7670001984)


Analysis of symmetry for initial positions (statically):
=====================================================================
 Subroutine PRICEL returns:
 Original cell was already a primitive cell.
 

 Routine SETGRP: Setting up the symmetry group for a 
 hexagonal supercell.


 Subroutine GETGRP returns: Found  1 space group operations
 (whereof  1 operations were pure point group operations)
 out of a pool of 24 trial point group operations.


The static configuration has the point symmetry C_1 .


Analysis of symmetry for dynamics (positions and initial velocities):
=====================================================================
 Subroutine PRICEL returns:
 Original cell was already a primitive cell.
 

 Routine SETGRP: Setting up the symmetry group for a 
 hexagonal supercell.


 Subroutine GETGRP returns: Found  1 space group operations
 (whereof  1 operations were pure point group operations)
 out of a pool of 24 trial point group operations.


The dynamic configuration has the point symmetry C_1 .


Analysis of structural, dynamic, and magnetic symmetry:
=====================================================================
 Subroutine PRICEL returns:
 Original cell was already a primitive cell.
 

 Routine SETGRP: Setting up the symmetry group for a 
 hexagonal supercell.


 Subroutine GETGRP returns: Found  1 space group operations
 (whereof  1 operations were pure point group operations)
 out of a pool of 24 trial point group operations.


The magnetic configuration has the point symmetry C_1 .


 Subroutine INISYM returns: Found  1 space group operations
 (whereof  1 operations are pure point group operations),
 and found     1 'primitive' translations

 
 
 KPOINTS: Gamma points only                       
  k-points in reciprocal lattice
Space group operators:
 irot       det(A)        alpha          n_x          n_y          n_z        tau_x        tau_y        tau_z
    1     1.000000     0.000000     1.000000     0.000000     0.000000     0.000000     0.000000     0.000000


--------------------------------------------------------------------------------------------------------




 Dimension of arrays:
   k-points           NKPTS =      1   k-points in BZ     NKDIM =      1   number of bands    NBANDS=     16
   number of dos      NEDOS =    301   number of ions     NIONS =      3
   non local maximal  LDIM  =      4   non local SUM 2l+1 LMDIM =      8
   total plane-waves  NPLWV = 777600
   max r-space proj   IRMAX =   4725   max aug-charges    IRDMAX=  82140
   dimension x,y,z NGX =    90 NGY =   90 NGZ =   96
   dimension x,y,z NGXF=   180 NGYF=  180 NGZF=  192
   support grid    NGXF=   360 NGYF=  360 NGZF=  384
   ions per type =               1   1   1
   NGX,Y,Z   is equivalent  to a cutoff of  10.94, 10.94, 10.81 a.u.
   NGXF,Y,Z  is equivalent  to a cutoff of  21.88, 21.88, 21.62 a.u.

 SYSTEM =  zeolite                                 
 POSCAR =  O2                                      

 Startparameter for this run:
   NWRITE =      2    write-flag & timer
   PREC   = acc       normal or accurate (medium, high low for compatibility)
   ISTART =      0    job   : 0-new  1-cont  2-samecut
   ICHARG =      2    charge: 1-file 2-atom 10-const
   ISPIN  =      2    spin polarized calculation?
   LNONCOLLINEAR =      F non collinear calculations
   LSORBIT =      F    spin-orbit coupling
   INIWAV =      1    electr: 0-lowe 1-rand  2-diag
   LASPH  =      F    aspherical Exc in radial PAW
   METAGGA=      F    non-selfconsistent MetaGGA calc.

 Electronic Relaxation 1
   ENCUT  =  400.0 eV  29.40 Ry    5.42 a.u.  22.30 22.30 24.08*2*pi/ulx,y,z
   ENINI  =  400.0     initial cutoff
   ENAUG  =  644.9 eV  augmentation charge cutoff
   NELM   =    100;   NELMIN=  2; NELMDL= -5     # of ELM steps 
   EDIFF  = 0.1E-07   stopping-criterion for ELM
   LREAL  =      T    real-space projection
   NLSPLINE    = F    spline interpolate recip. space projectors
   LCOMPAT=      F    compatible to vasp.4.4
   GGA_COMPAT  = T    GGA compatible to vasp.4.4-vasp.4.6
   LMAXPAW     = -100 max onsite density
   LMAXMIX     =    2 max onsite mixed and CHGCAR
   VOSKOWN=      0    Vosko Wilk Nusair interpolation
   ROPT   =   -0.00025  -0.00025  -0.00025
 Ionic relaxation
   EDIFFG = -.1E-07   stopping-criterion for IOM
   NSW    =     10    number of steps for IOM
   NBLOCK =      1;   KBLOCK =     10    inner block; outer block 
   IBRION =      3    ionic relax: 0-MD 1-quasi-New 2-CG
   NFREE  =      0    steps in history (QN), initial steepest desc. (CG)
   ISIF   =      2    stress and relaxation
   IWAVPR =     11    prediction:  0-non 1-charg 2-wave 3-comb
   ISYM   =      2    0-nonsym 1-usesym 2-fastsym
   LCORR  =      T    Harris-Foulkes like correction to forces

   POTIM  = 0.0000    time-step for ionic-motion
   TEIN   =    0.0    initial temperature
   TEBEG  =    0.0;   TEEND  =   0.0 temperature during run
   SMASS  =  -3.00    Nose mass-parameter (am)
   estimated Nose-frequenzy (Omega)   =  0.10E-29 period in steps =  0.00 mass=  -0.427E-26a.u.
   SCALEE = 1.0000    scale energy and forces
   NPACO  =    256;   APACO  = 16.0  distance and # of slots for P.C.
   PSTRESS=    0.0 pullay stress

  Mass of Ions in am
   POMASS =  16.00 32.07 12.01
  Ionic Valenz
   ZVAL   =   6.00  6.00  4.00
  Atomic Wigner-Seitz radii
   RWIGS  =  -1.00 -1.00 -1.00
  virtual crystal weights 
   VCA    =   1.00  1.00  1.00
   NELECT =      16.0000    total number of electrons
   NUPDOWN=      -1.0000    fix difference up-down

 DOS related values:
   EMIN   =  10.00;   EMAX   =-10.00  energy-range for DOS
   EFERMI =   0.00
   ISMEAR =     0;   SIGMA  =   0.05  broadening in eV -4-tet -1-fermi 0-gaus

 Electronic relaxation 2 (details)
   IALGO  =     38    algorithm
   LDIAG  =      T    sub-space diagonalisation (order eigenvalues)
   LSUBROT=      F    optimize rotation matrix (better conditioning)
   TURBO    =      0    0=normal 1=particle mesh
   IRESTART =      0    0=no restart 2=restart with 2 vectors
   NREBOOT  =      0    no. of reboots
   NMIN     =      0    reboot dimension
   EREF     =   0.00    reference energy to select bands
   IMIX   =      4    mixing-type and parameters
     AMIX     =   0.40;   BMIX     =  1.00
     AMIX_MAG =   1.60;   BMIX_MAG =  1.00
     AMIN     =   0.10
     WC   =   100.;   INIMIX=   1;  MIXPRE=   1;  MAXMIX= -45

 Intra band minimization:
   WEIMIN = 0.0010     energy-eigenvalue tresh-hold
   EBREAK =  0.16E-10  absolut break condition
   DEPER  =   0.30     relativ break condition  

   TIME   =   0.40     timestep for ELM

  volume/ion in A,a.u.               =     797.18      5379.64
  Fermi-wavevector in a.u.,A,eV,Ry     =   0.308477  0.582936  1.294701  0.095158
  Thomas-Fermi vector in A             =   1.184309
 
 Write flags
   LWAVE        =      F    write WAVECAR
   LDOWNSAMPLE  =      F    k-point downsampling of WAVECAR
   LCHARG       =      F    write CHGCAR
   LVTOT        =      F    write LOCPOT, total local potential
   LVHAR        =      F    write LOCPOT, Hartree potential only
   LELF         =      F    write electronic localiz. function (ELF)
   LORBIT       =     11    0 simple, 1 ext, 2 COOP (PROOUT), +10 PAW based schemes


 Dipole corrections
   LMONO  =      F    monopole corrections only (constant potential shift)
   LDIPOL =      F    correct potential (dipole corrections)
   IDIPOL =      0    1-x, 2-y, 3-z, 4-all directions 
   EPSILON=  1.0000000 bulk dielectric constant

 Exchange correlation treatment:
   GGA     =    --    GGA type
   LEXCH   =     8    internal setting for exchange type
   VOSKOWN=      0    Vosko Wilk Nusair interpolation
   LHFCALC =     F    Hartree Fock is set to
   LHFONE  =     F    Hartree Fock one center treatment
   AEXX    =    0.0000 exact exchange contribution

 Linear response parameters
   LEPSILON=     F    determine dielectric tensor
   LRPA    =     F    only Hartree local field effects (RPA)
   LNABLA  =     F    use nabla operator in PAW spheres
   LVEL    =     F    velocity operator in full k-point grid
   LINTERFAST=   F  fast interpolation
   KINTER  =     0    interpolate to denser k-point grid
   CSHIFT  =0.1000    complex shift for real part using Kramers Kronig
   OMEGAMAX=  -1.0    maximum frequency
   DEG_THRESHOLD= 0.2000000E-02 threshold for treating states as degnerate
   RTIME   =   -0.100 relaxation time in fs
  (WPLASMAI=    0.000 imaginary part of plasma frequency in eV, 0.658/RTIME)
   DFIELD  = 0.0000000 0.0000000 0.0000000 field for delta impulse in time
 
 Orbital magnetization related:
   ORBITALMAG=     F  switch on orbital magnetization
   LCHIMAG   =     F  perturbation theory with respect to B field
   DQ        =  0.001000  dq finite difference perturbation B field
   LLRAUG    =     F  two centre corrections for induced B field



--------------------------------------------------------------------------------------------------------


 quickmin algorithm: (dynamic with friction)
 charge density and potential will be updated during run
 spin polarized calculation
 Variant of blocked Davidson
 Davidson routine will perform the subspace rotation
 perform sub-space diagonalisation
    after iterative eigenvector-optimisation
 modified Broyden-mixing scheme, WC =      100.0
 initial mixing is a Kerker type mixing with AMIX =  0.4000 and BMIX =      1.0000
 Hartree-type preconditioning will be used
 using additional bands            8
 real space projection scheme for non local part
 use partial core corrections
 calculate Harris-corrections to forces 
   (improved forces if not selfconsistent)
 use gradient corrections 
 use of overlap-Matrix (Vanderbilt PP)
 Gauss-broadening in eV      SIGMA  =   0.05


--------------------------------------------------------------------------------------------------------


  energy-cutoff  :      400.00
  volume of cell :     2391.54
      direct lattice vectors                 reciprocal lattice vectors
    13.675000191  0.000000000  0.000000000     0.073126142  0.042219398  0.000000000
    -6.837500095 11.842897562  0.000000000     0.000000000  0.084438795  0.000000000
     0.000000000  0.000000000 14.767000198     0.000000000  0.000000000  0.067718561

  length of vectors
    13.675000191 13.675000191 14.767000198     0.084438795  0.084438795  0.067718561


 
 k-points in units of 2pi/SCALE and weight: Gamma points only                       
   0.00000000  0.00000000  0.00000000       1.000
 
 k-points in reciprocal lattice and weights: Gamma points only                       
   0.00000000  0.00000000  0.00000000       1.000
 
 position of ions in fractional coordinates (direct lattice) 
   0.81691873  0.51493519  0.68196324
   0.76392291  0.53061066  0.50595196
   0.79415526  0.52167293  0.60633917
 
 position of ions in cartesian coordinates  (Angst):
   7.65049431  6.09832472 10.07055124
   6.81859552  6.28396769  7.47139268
   7.29313470  6.17811906  8.95381061
 


--------------------------------------------------------------------------------------------------------


 k-point  1 :   0.0000 0.0000 0.0000  plane waves:   43405

 maximum and minimum number of plane-waves per node :     10852    10850

 maximum number of plane-waves:     43405
 maximum index in each direction: 
   IXMAX=   22   IYMAX=   22   IZMAX=   24
   IXMIN=  -22   IYMIN=  -22   IZMIN=  -24


 real space projection operators:
  total allocation   :        737.88 KBytes
  max/ min on nodes  :        186.50        182.94


 parallel 3D FFT for wavefunctions:
    minimum data exchange during FFTs selected (reduces bandwidth)
 parallel 3D FFT for charge:
    minimum data exchange during FFTs selected (reduces bandwidth)


 total amount of memory used by VASP MPI-rank0   148627. kBytes
=======================================================================

   base      :      30000. kBytes
   nonlr-proj:        467. kBytes
   fftplans  :      63994. kBytes
   grid      :      52770. kBytes
   one-center:          6. kBytes
   wavefun   :       1390. kBytes
 
     INWAV:  cpu time    0.0000: real time    0.0002
 Broyden mixing: mesh for mixing (old mesh)
   NGX = 45   NGY = 45   NGZ = 49
  (NGX  =180   NGY  =180   NGZ  =192)
  gives a total of  99225 points

 initial charge density was supplied:
 charge density of overlapping atoms calculated
 number of electron      16.0000000 magnetization       3.0000000
 keeping initial charge density in first step


--------------------------------------------------------------------------------------------------------


 Maximum index for non-local projection operator         1146
 Maximum index for augmentation-charges         4869 (set IRDMAX)


--------------------------------------------------------------------------------------------------------


 First call to EWALD:  gamma=   0.133
 Maximum number of real-space cells 3x 3x 3
 Maximum number of reciprocal cells 3x 3x 3

    FEWALD:  cpu time    0.0013: real time    0.0013


--------------------------------------- Iteration      1(   1)  ---------------------------------------


    POTLOK:  cpu time    0.5422: real time    0.5765
    SETDIJ:  cpu time    0.2592: real time    0.2599
     EDDAV:  cpu time    0.4582: real time    0.4596
       DOS:  cpu time    0.0002: real time    0.0002
    --------------------------------------------
      LOOP:  cpu time    1.2598: real time    1.2961

 eigenvalue-minimisations  :    96
 total energy-change (2. order) : 0.8916682E+02  (-0.3587308E+03)
 number of electron      16.0000000 magnetization       3.0000000
 augmentation part       16.0000000 magnetization       3.0000000

 Free energy of the ion-electron system (eV)
  ---------------------------------------------------
  alpha Z        PSCENC =         0.45950737
  Ewald energy   TEWEN  =       316.91513081
  -Hartree energ DENC   =      -994.40871860
  -exchange      EXHF   =         0.00000000
  -V(xc)+E(xc)   XCENC  =        52.76596688
  PAW double counting   =       382.77538028     -382.56144415
  entropy T*S    EENTRO =        -0.00000043
  eigenvalues    EBANDS =      -142.98782496
  atomic energy  EATOM  =       856.20882267
  Solvation  Ediel_sol  =         0.00000000
  ---------------------------------------------------
  free energy    TOTEN  =        89.16681988 eV

  energy without entropy =       89.16682031  energy(sigma->0) =       89.16682010


--------------------------------------------------------------------------------------------------------




--------------------------------------- Iteration      1(   2)  ---------------------------------------


     EDDAV:  cpu time    0.4513: real time    0.4597
       DOS:  cpu time    0.0001: real time    0.0001
    --------------------------------------------
      LOOP:  cpu time    0.4514: real time    0.4598

 eigenvalue-minimisations  :    96
 total energy-change (2. order) :-0.9025232E+02  (-0.8595513E+02)
 number of electron      16.0000000 magnetization       3.0000000
 augmentation part       16.0000000 magnetization       3.0000000

 Free energy of the ion-electron system (eV)
  ---------------------------------------------------
  alpha Z        PSCENC =         0.45950737
  Ewald energy   TEWEN  =       316.91513081
  -Hartree energ DENC   =      -994.40871860
  -exchange      EXHF   =         0.00000000
  -V(xc)+E(xc)   XCENC  =        52.76596688
  PAW double counting   =       382.77538028     -382.56144415
  entropy T*S    EENTRO =        -0.00000000
  eigenvalues    EBANDS =      -233.24014709
  atomic energy  EATOM  =       856.20882267
  Solvation  Ediel_sol  =         0.00000000
  ---------------------------------------------------
  free energy    TOTEN  =        -1.08550182 eV

  energy without entropy =       -1.08550182  energy(sigma->0) =       -1.08550182


--------------------------------------------------------------------------------------------------------




--------------------------------------- Iteration      1(   3)  ---------------------------------------


     EDDAV:  cpu time    0.4519: real time    0.4532
       DOS:  cpu time    0.0001: real time    0.0001
    --------------------------------------------
      LOOP:  cpu time    0.4520: real time    0.4533

 eigenvalue-minimisations  :    96
 total energy-change (2. order) :-0.1786331E+02  (-0.1747728E+02)
 number of electron      16.0000000 magnetization       3.0000000
 augmentation part       16.0000000 magnetization       3.0000000

 Free energy of the ion-electron system (eV)
  ---------------------------------------------------
  alpha Z        PSCENC =         0.45950737
  Ewald energy   TEWEN  =       316.91513081
  -Hartree energ DENC   =      -994.40871860
  -exchange      EXHF   =         0.00000000
  -V(xc)+E(xc)   XCENC  =        52.76596688
  PAW double counting   =       382.77538028     -382.56144415
  entropy T*S    EENTRO =        -0.00000000
  eigenvalues    EBANDS =      -251.10345600
  atomic energy  EATOM  =       856.20882267
  Solvation  Ediel_sol  =         0.00000000
  ---------------------------------------------------
  free energy    TOTEN  =       -18.94881073 eV

  energy without entropy =      -18.94881073  energy(sigma->0) =      -18.94881073


--------------------------------------------------------------------------------------------------------




--------------------------------------- Iteration      1(   4)  ---------------------------------------


     EDDAV:  cpu time    0.3916: real time    0.4031
       DOS:  cpu time    0.0001: real time    0.0001
    --------------------------------------------
      LOOP:  cpu time    0.3917: real time    0.4032

 eigenvalue-minimisations  :    80
 total energy-change (2. order) :-0.1181723E+01  (-0.1131902E+01)
 number of electron      16.0000000 magnetization       3.0000000
 augmentation part       16.0000000 magnetization       3.0000000

 Free energy of the ion-electron system (eV)
  ---------------------------------------------------
  alpha Z        PSCENC =         0.45950737
  Ewald energy   TEWEN  =       316.91513081
  -Hartree energ DENC   =      -994.40871860
  -exchange      EXHF   =         0.00000000
  -V(xc)+E(xc)   XCENC  =        52.76596688
  PAW double counting   =       382.77538028     -382.56144415
  entropy T*S    EENTRO =        -0.00000000
  eigenvalues    EBANDS =      -252.28517921
  atomic energy  EATOM  =       856.20882267
  Solvation  Ediel_sol  =         0.00000000
  ---------------------------------------------------
  free energy    TOTEN  =       -20.13053394 eV

  energy without entropy =      -20.13053394  energy(sigma->0) =      -20.13053394


--------------------------------------------------------------------------------------------------------




--------------------------------------- Iteration      1(   5)  ---------------------------------------


     EDDAV:  cpu time    0.3499: real time    0.3547
       DOS:  cpu time    0.0002: real time    0.0002
    CHARGE:  cpu time    0.2771: real time    0.2778
    MIXING:  cpu time    0.0372: real time    0.0373
    --------------------------------------------
      LOOP:  cpu time    0.6644: real time    0.6700

 eigenvalue-minimisations  :    64
 total energy-change (2. order) :-0.2273840E-01  (-0.2272830E-01)
 number of electron      16.0000000 magnetization       2.2642137
 augmentation part       -0.0188216 magnetization       2.2875611

 Broyden mixing:
  rms(total) = 0.10795E+01    rms(broyden)= 0.10788E+01
  rms(prec ) = 0.11599E+01
  weight for this iteration     100.00

 Free energy of the ion-electron system (eV)
  ---------------------------------------------------
  alpha Z        PSCENC =         0.45950737
  Ewald energy   TEWEN  =       316.91513081
  -Hartree energ DENC   =      -994.40871860
  -exchange      EXHF   =         0.00000000
  -V(xc)+E(xc)   XCENC  =        52.76596688
  PAW double counting   =       382.77538028     -382.56144415
  entropy T*S    EENTRO =        -0.00000000
  eigenvalues    EBANDS =      -252.30791761
  atomic energy  EATOM  =       856.20882267
  Solvation  Ediel_sol  =         0.00000000
  ---------------------------------------------------
  free energy    TOTEN  =       -20.15327234 eV

  energy without entropy =      -20.15327234  energy(sigma->0) =      -20.15327234


--------------------------------------------------------------------------------------------------------




--------------------------------------- Iteration      1(   6)  ---------------------------------------


    POTLOK:  cpu time    0.5455: real time    0.5472
    SETDIJ:  cpu time    0.2616: real time    0.2622
     EDDAV:  cpu time    0.3617: real time    0.3626
       DOS:  cpu time    0.0001: real time    0.0001
    CHARGE:  cpu time    0.2865: real time    0.2871
    MIXING:  cpu time    0.0204: real time    0.0204
    --------------------------------------------
      LOOP:  cpu time    1.4757: real time    1.4796

 eigenvalue-minimisations  :    72
 total energy-change (2. order) : 0.8168470E+01  (-0.9936705E+00)
 number of electron      16.0000000 magnetization       1.7584797
 augmentation part       -0.1689379 magnetization       1.7447831

 Broyden mixing:
  rms(total) = 0.39335E+00    rms(broyden)= 0.39288E+00
  rms(prec ) = 0.43358E+00
  weight for this iteration     100.00

 eigenvalues of (default mixing * dielectric matrix)
  average eigenvalue GAMMA=   0.9078
  0.9078

 Free energy of the ion-electron system (eV)
  ---------------------------------------------------
  alpha Z        PSCENC =         0.45950737
  Ewald energy   TEWEN  =       316.91513081
  -Hartree energ DENC   =     -1016.40237358
  -exchange      EXHF   =         0.00000000
  -V(xc)+E(xc)   XCENC  =        59.93522427
  PAW double counting   =       442.51301214     -442.62860781
  entropy T*S    EENTRO =        -0.00000000
  eigenvalues    EBANDS =      -228.98551839
  atomic energy  EATOM  =       856.20882267
  Solvation  Ediel_sol  =         0.00000000
  ---------------------------------------------------
  free energy    TOTEN  =       -11.98480250 eV

  energy without entropy =      -11.98480250  energy(sigma->0) =      -11.98480250


--------------------------------------------------------------------------------------------------------




--------------------------------------- Iteration      1(   7)  ---------------------------------------


    POTLOK:  cpu time    0.5280: real time    0.5294
    SETDIJ:  cpu time    0.2587: real time    0.2593
     EDDAV:  cpu time    0.3605: real time    0.3614
       DOS:  cpu time    0.0001: real time    0.0001
    CHARGE:  cpu time    0.2865: real time    0.2876
    MIXING:  cpu time    0.0224: real time    0.0225
    --------------------------------------------
      LOOP:  cpu time    1.4564: real time    1.4603

 eigenvalue-minimisations  :    72
 total energy-change (2. order) :-0.3881694E+01  (-0.2359732E+00)
 number of electron      16.0000000 magnetization       1.0491985
 augmentation part       -0.1461085 magnetization       1.0401736

 Broyden mixing:
  rms(total) = 0.20406E+00    rms(broyden)= 0.20405E+00
  rms(prec ) = 0.22112E+00
  weight for this iteration     100.00

 eigenvalues of (default mixing * dielectric matrix)
  average eigenvalue GAMMA=   1.1064
  0.9330  1.2798

 Free energy of the ion-electron system (eV)
  ---------------------------------------------------
  alpha Z        PSCENC =         0.45950737
  Ewald energy   TEWEN  =       316.91513081
  -Hartree energ DENC   =     -1019.85390406
  -exchange      EXHF   =         0.00000000
  -V(xc)+E(xc)   XCENC  =        57.12492361
  PAW double counting   =       463.63264551     -463.80630035
  entropy T*S    EENTRO =        -0.00000000
  eigenvalues    EBANDS =      -226.54732217
  atomic energy  EATOM  =       856.20882267
  Solvation  Ediel_sol  =         0.00000000
  ---------------------------------------------------
  free energy    TOTEN  =       -15.86649660 eV

  energy without entropy =      -15.86649660  energy(sigma->0) =      -15.86649660


--------------------------------------------------------------------------------------------------------




--------------------------------------- Iteration      1(   8)  ---------------------------------------


    POTLOK:  cpu time    0.5377: real time    0.5436
    SETDIJ:  cpu time    0.2599: real time    0.2605
     EDDAV:  cpu time    0.3941: real time    0.3950
       DOS:  cpu time    0.0001: real time    0.0001
    CHARGE:  cpu time    0.2786: real time    0.2792
    MIXING:  cpu time    0.0280: real time    0.0281
    --------------------------------------------
      LOOP:  cpu time    1.4983: real time    1.5065

 eigenvalue-minimisations  :    80
 total energy-change (2. order) :-0.2599055E+01  (-0.1436530E+00)
 number of electron      16.0000000 magnetization       0.7734543
 augmentation part       -0.1250104 magnetization       0.7728022

 Broyden mixing:
  rms(total) = 0.84178E-01    rms(broyden)= 0.84146E-01
  rms(prec ) = 0.90993E-01
  weight for this iteration     100.00

 eigenvalues of (default mixing * dielectric matrix)
  average eigenvalue GAMMA=   1.1660
  1.7724  1.0177  0.7079

 Free energy of the ion-electron system (eV)
  ---------------------------------------------------
  alpha Z        PSCENC =         0.45950737
  Ewald energy   TEWEN  =       316.91513081
  -Hartree energ DENC   =     -1025.41826154
  -exchange      EXHF   =         0.00000000
  -V(xc)+E(xc)   XCENC  =        55.26902055
  PAW double counting   =       489.14698237     -489.37910387
  entropy T*S    EENTRO =        -0.00000000
  eigenvalues    EBANDS =      -221.66764949
  atomic energy  EATOM  =       856.20882267
  Solvation  Ediel_sol  =         0.00000000
  ---------------------------------------------------
  free energy    TOTEN  =       -18.46555111 eV

  energy without entropy =      -18.46555111  energy(sigma->0) =      -18.46555111


--------------------------------------------------------------------------------------------------------




--------------------------------------- Iteration      1(   9)  ---------------------------------------


    POTLOK:  cpu time    0.5390: real time    0.5404
    SETDIJ:  cpu time    0.2595: real time    0.2601
     EDDAV:  cpu time    0.3962: real time    0.3972
       DOS:  cpu time    0.0001: real time    0.0001
    CHARGE:  cpu time    0.2721: real time    0.2727
    MIXING:  cpu time    0.0341: real time    0.0342
    --------------------------------------------
      LOOP:  cpu time    1.5010: real time    1.5048

 eigenvalue-minimisations  :    80
 total energy-change (2. order) :-0.4686628E+00  (-0.8168501E-02)
 number of electron      16.0000000 magnetization       0.4847609
 augmentation part       -0.1329082 magnetization       0.4836317

 Broyden mixing:
  rms(total) = 0.49348E-01    rms(broyden)= 0.49335E-01
  rms(prec ) = 0.53859E-01
  weight for this iteration     100.00

 eigenvalues of (default mixing * dielectric matrix)
  average eigenvalue GAMMA=   1.2244
  2.1168  1.2018  0.8750  0.7040

 Free energy of the ion-electron system (eV)
  ---------------------------------------------------
  alpha Z        PSCENC =         0.45950737
  Ewald energy   TEWEN  =       316.91513081
  -Hartree energ DENC   =     -1026.01265766
  -exchange      EXHF   =         0.00000000
  -V(xc)+E(xc)   XCENC  =        54.91328262
  PAW double counting   =       493.28421095     -493.50904151
  entropy T*S    EENTRO =        -0.00000000
  eigenvalues    EBANDS =      -221.19346918
  atomic energy  EATOM  =       856.20882267
  Solvation  Ediel_sol  =         0.00000000
  ---------------------------------------------------
  free energy    TOTEN  =       -18.93421391 eV

  energy without entropy =      -18.93421391  energy(sigma->0) =      -18.93421391


--------------------------------------------------------------------------------------------------------




--------------------------------------- Iteration      1(  10)  ---------------------------------------


    POTLOK:  cpu time    0.5380: real time    0.5395
    SETDIJ:  cpu time    0.2572: real time    0.2578
     EDDAV:  cpu time    0.3318: real time    0.3325
       DOS:  cpu time    0.0001: real time    0.0001
    CHARGE:  cpu time    0.2778: real time    0.2785
    MIXING:  cpu time    0.0300: real time    0.0301
    --------------------------------------------
      LOOP:  cpu time    1.4349: real time    1.4385

 eigenvalue-minimisations  :    64
 total energy-change (2. order) :-0.4280501E+00  (-0.5864228E-02)
 number of electron      16.0000000 magnetization       0.2563453
 augmentation part       -0.1362317 magnetization       0.2560025

 Broyden mixing:
  rms(total) = 0.23318E-01    rms(broyden)= 0.23310E-01
  rms(prec ) = 0.25778E-01
  weight for this iteration     100.00

 eigenvalues of (default mixing * dielectric matrix)
  average eigenvalue GAMMA=   1.2836
  2.4373  1.4076  0.9581  0.9231  0.6920

 Free energy of the ion-electron system (eV)
  ---------------------------------------------------
  alpha Z        PSCENC =         0.45950737
  Ewald energy   TEWEN  =       316.91513081
  -Hartree energ DENC   =     -1025.49042560
  -exchange      EXHF   =         0.00000000
  -V(xc)+E(xc)   XCENC  =        54.50921324
  PAW double counting   =       494.58224972     -494.78206251
  entropy T*S    EENTRO =        -0.00000000
  eigenvalues    EBANDS =      -221.76469975
  atomic energy  EATOM  =       856.20882267
  Solvation  Ediel_sol  =         0.00000000
  ---------------------------------------------------
  free energy    TOTEN  =       -19.36226403 eV

  energy without entropy =      -19.36226403  energy(sigma->0) =      -19.36226403


--------------------------------------------------------------------------------------------------------




--------------------------------------- Iteration      1(  11)  ---------------------------------------


    POTLOK:  cpu time    0.5307: real time    0.5321
    SETDIJ:  cpu time    0.2591: real time    0.2597
     EDDAV:  cpu time    0.4112: real time    0.4122
       DOS:  cpu time    0.0001: real time    0.0001
    CHARGE:  cpu time    0.2915: real time    0.2922
    MIXING:  cpu time    0.0222: real time    0.0222
    --------------------------------------------
      LOOP:  cpu time    1.5147: real time    1.5185

 eigenvalue-minimisations  :    80
 total energy-change (2. order) :-0.3396385E+00  (-0.3384866E-02)
 number of electron      16.0000000 magnetization       0.1776810
 augmentation part       -0.1354584 magnetization       0.1776453

 Broyden mixing:
  rms(total) = 0.11402E-01    rms(broyden)= 0.11396E-01
  rms(prec ) = 0.13122E-01
  weight for this iteration     100.00

 eigenvalues of (default mixing * dielectric matrix)
  average eigenvalue GAMMA=   1.2518
  2.5768  1.6407  0.9661  0.8666  0.8072  0.6530

 Free energy of the ion-electron system (eV)
  ---------------------------------------------------
  alpha Z        PSCENC =         0.45950737
  Ewald energy   TEWEN  =       316.91513081
  -Hartree energ DENC   =     -1025.01968331
  -exchange      EXHF   =         0.00000000
  -V(xc)+E(xc)   XCENC  =        54.16925590
  PAW double counting   =       494.83082611     -495.01451582
  entropy T*S    EENTRO =        -0.00000000
  eigenvalues    EBANDS =      -222.25124623
  atomic energy  EATOM  =       856.20882267
  Solvation  Ediel_sol  =         0.00000000
  ---------------------------------------------------
  free energy    TOTEN  =       -19.70190250 eV

  energy without entropy =      -19.70190250  energy(sigma->0) =      -19.70190250


--------------------------------------------------------------------------------------------------------




--------------------------------------- Iteration      1(  12)  ---------------------------------------


    POTLOK:  cpu time    0.5303: real time    0.5324
    SETDIJ:  cpu time    0.2512: real time    0.2601
     EDDAV:  cpu time    0.4568: real time    0.4579
       DOS:  cpu time    0.0001: real time    0.0001
    CHARGE:  cpu time    0.2914: real time    0.2921
    MIXING:  cpu time    0.0221: real time    0.0221
    --------------------------------------------
      LOOP:  cpu time    1.5519: real time    1.5647

 eigenvalue-minimisations  :    96
 total energy-change (2. order) :-0.5141907E-01  (-0.3307951E-03)
 number of electron      16.0000000 magnetization       0.0503881
 augmentation part       -0.1361733 magnetization       0.0503613

 Broyden mixing:
  rms(total) = 0.72223E-02    rms(broyden)= 0.72203E-02
  rms(prec ) = 0.86548E-02
  weight for this iteration     100.00

 eigenvalues of (default mixing * dielectric matrix)
  average eigenvalue GAMMA=   1.3323
  2.8017  1.9986  1.1140  1.1140  0.8287  0.8287  0.6405

 Free energy of the ion-electron system (eV)
  ---------------------------------------------------
  alpha Z        PSCENC =         0.45950737
  Ewald energy   TEWEN  =       316.91513081
  -Hartree energ DENC   =     -1024.94331187
  -exchange      EXHF   =         0.00000000
  -V(xc)+E(xc)   XCENC  =        54.11484395
  PAW double counting   =       494.67441127     -494.85521653
  entropy T*S    EENTRO =        -0.00000000
  eigenvalues    EBANDS =      -222.32750925
  atomic energy  EATOM  =       856.20882267
  Solvation  Ediel_sol  =         0.00000000
  ---------------------------------------------------
  free energy    TOTEN  =       -19.75332157 eV

  energy without entropy =      -19.75332157  energy(sigma->0) =      -19.75332157


--------------------------------------------------------------------------------------------------------




--------------------------------------- Iteration      1(  13)  ---------------------------------------


    POTLOK:  cpu time    0.5300: real time    0.5315
    SETDIJ:  cpu time    0.2596: real time    0.2603
     EDDAV:  cpu time    0.4295: real time    0.4305
       DOS:  cpu time    0.0001: real time    0.0001
    CHARGE:  cpu time    0.2831: real time    0.2837
    MIXING:  cpu time    0.0246: real time    0.0247
    --------------------------------------------
      LOOP:  cpu time    1.5268: real time    1.5308

 eigenvalue-minimisations  :    88
 total energy-change (2. order) :-0.6161203E-01  (-0.4668181E-03)
 number of electron      16.0000000 magnetization       0.0149345
 augmentation part       -0.1370487 magnetization       0.0148423

 Broyden mixing:
  rms(total) = 0.40034E-02    rms(broyden)= 0.40016E-02
  rms(prec ) = 0.50067E-02
  weight for this iteration     100.00

 eigenvalues of (default mixing * dielectric matrix)
  average eigenvalue GAMMA=   1.3944
  3.4026  2.3493  1.4729  1.0144  0.8322  0.7807  0.6941  0.6092

 Free energy of the ion-electron system (eV)
  ---------------------------------------------------
  alpha Z        PSCENC =         0.45950737
  Ewald energy   TEWEN  =       316.91513081
  -Hartree energ DENC   =     -1024.75308274
  -exchange      EXHF   =         0.00000000
  -V(xc)+E(xc)   XCENC  =        54.04040989
  PAW double counting   =       494.16015266     -494.33695613
  entropy T*S    EENTRO =        -0.00000000
  eigenvalues    EBANDS =      -222.50891814
  atomic energy  EATOM  =       856.20882267
  Solvation  Ediel_sol  =         0.00000000
  ---------------------------------------------------
  free energy    TOTEN  =       -19.81493360 eV

  energy without entropy =      -19.81493360  energy(sigma->0) =      -19.81493360


--------------------------------------------------------------------------------------------------------




--------------------------------------- Iteration      1(  14)  ---------------------------------------


    POTLOK:  cpu time    0.5433: real time    0.5447
    SETDIJ:  cpu time    0.2631: real time    0.2640
     EDDAV:  cpu time    0.4325: real time    0.4335
       DOS:  cpu time    0.0001: real time    0.0001
    CHARGE:  cpu time    0.2718: real time    0.2724
    MIXING:  cpu time    0.0379: real time    0.0380
    --------------------------------------------
      LOOP:  cpu time    1.5486: real time    1.5528

 eigenvalue-minimisations  :    88
 total energy-change (2. order) :-0.1877919E-01  (-0.7539638E-04)
 number of electron      16.0000000 magnetization       0.0021850
 augmentation part       -0.1368485 magnetization       0.0021538

 Broyden mixing:
  rms(total) = 0.16970E-02    rms(broyden)= 0.16963E-02
  rms(prec ) = 0.27422E-02
  weight for this iteration     100.00

 eigenvalues of (default mixing * dielectric matrix)
  average eigenvalue GAMMA=   1.3987
  3.6037  2.3972  1.6228  1.0570  0.8648  0.8648  0.8653  0.6938  0.6188

 Free energy of the ion-electron system (eV)
  ---------------------------------------------------
  alpha Z        PSCENC =         0.45950737
  Ewald energy   TEWEN  =       316.91513081
  -Hartree energ DENC   =     -1024.76844002
  -exchange      EXHF   =         0.00000000
  -V(xc)+E(xc)   XCENC  =        54.02069953
  PAW double counting   =       494.16711365     -494.34491090
  entropy T*S    EENTRO =        -0.00000000
  eigenvalues    EBANDS =      -222.49163590
  atomic energy  EATOM  =       856.20882267
  Solvation  Ediel_sol  =         0.00000000
  ---------------------------------------------------
  free energy    TOTEN  =       -19.83371279 eV

  energy without entropy =      -19.83371279  energy(sigma->0) =      -19.83371279


--------------------------------------------------------------------------------------------------------




--------------------------------------- Iteration      1(  15)  ---------------------------------------


    POTLOK:  cpu time    0.5448: real time    0.5463
    SETDIJ:  cpu time    0.2607: real time    0.2613
     EDDAV:  cpu time    0.3644: real time    0.3653
       DOS:  cpu time    0.0001: real time    0.0001
    CHARGE:  cpu time    0.2916: real time    0.2923
    MIXING:  cpu time    0.0218: real time    0.0218
    --------------------------------------------
      LOOP:  cpu time    1.4834: real time    1.4871

 eigenvalue-minimisations  :    72
 total energy-change (2. order) :-0.5772247E-02  (-0.2151980E-04)
 number of electron      16.0000000 magnetization      -0.0065189
 augmentation part       -0.1366164 magnetization      -0.0065120

 Broyden mixing:
  rms(total) = 0.85712E-03    rms(broyden)= 0.85666E-03
  rms(prec ) = 0.18740E-02
  weight for this iteration     100.00

 eigenvalues of (default mixing * dielectric matrix)
  average eigenvalue GAMMA=   1.4228
  3.8236  2.4622  1.7737  1.3505  0.8652  0.8652  0.9243  0.8646  0.6199  0.6788

 Free energy of the ion-electron system (eV)
  ---------------------------------------------------
  alpha Z        PSCENC =         0.45950737
  Ewald energy   TEWEN  =       316.91513081
  -Hartree energ DENC   =     -1024.78916857
  -exchange      EXHF   =         0.00000000
  -V(xc)+E(xc)   XCENC  =        54.01519941
  PAW double counting   =       494.21038135     -494.38882809
  entropy T*S    EENTRO =        -0.00000000
  eigenvalues    EBANDS =      -222.47053000
  atomic energy  EATOM  =       856.20882267
  Solvation  Ediel_sol  =         0.00000000
  ---------------------------------------------------
  free energy    TOTEN  =       -19.83948504 eV

  energy without entropy =      -19.83948504  energy(sigma->0) =      -19.83948504


--------------------------------------------------------------------------------------------------------




--------------------------------------- Iteration      1(  16)  ---------------------------------------


    POTLOK:  cpu time    0.5286: real time    0.5302
    SETDIJ:  cpu time    0.2584: real time    0.2595
     EDDAV:  cpu time    0.4306: real time    0.4318
       DOS:  cpu time    0.0001: real time    0.0001
    CHARGE:  cpu time    0.2756: real time    0.2763
    MIXING:  cpu time    0.0344: real time    0.0345
    --------------------------------------------
      LOOP:  cpu time    1.5278: real time    1.5323

 eigenvalue-minimisations  :    88
 total energy-change (2. order) :-0.1253925E-02  (-0.1073786E-04)
 number of electron      16.0000000 magnetization      -0.0079235
 augmentation part       -0.1366025 magnetization      -0.0079137

 Broyden mixing:
  rms(total) = 0.53837E-03    rms(broyden)= 0.53828E-03
  rms(prec ) = 0.12220E-02
  weight for this iteration     100.00

 eigenvalues of (default mixing * dielectric matrix)
  average eigenvalue GAMMA=   1.4409
  3.9982  2.5330  2.0353  1.5469  1.0446  0.9618  0.8564  0.8564  0.7396  0.6605
  0.6169

 Free energy of the ion-electron system (eV)
  ---------------------------------------------------
  alpha Z        PSCENC =         0.45950737
  Ewald energy   TEWEN  =       316.91513081
  -Hartree energ DENC   =     -1024.82744876
  -exchange      EXHF   =         0.00000000
  -V(xc)+E(xc)   XCENC  =        54.01457733
  PAW double counting   =       494.26437125     -494.44348351
  entropy T*S    EENTRO =        -0.00000000
  eigenvalues    EBANDS =      -222.43221613
  atomic energy  EATOM  =       856.20882267
  Solvation  Ediel_sol  =         0.00000000
  ---------------------------------------------------
  free energy    TOTEN  =       -19.84073896 eV

  energy without entropy =      -19.84073896  energy(sigma->0) =      -19.84073896


--------------------------------------------------------------------------------------------------------




--------------------------------------- Iteration      1(  17)  ---------------------------------------


    POTLOK:  cpu time    0.5424: real time    0.5562
    SETDIJ:  cpu time    0.2679: real time    0.2703
     EDDAV:  cpu time    0.3738: real time    0.3747
       DOS:  cpu time    0.0001: real time    0.0001
    CHARGE:  cpu time    0.2863: real time    0.2870
    MIXING:  cpu time    0.0278: real time    0.0278
    --------------------------------------------
      LOOP:  cpu time    1.4984: real time    1.5162

 eigenvalue-minimisations  :    72
 total energy-change (2. order) :-0.2629364E-04  (-0.2374315E-05)
 number of electron      16.0000000 magnetization      -0.0050745
 augmentation part       -0.1366071 magnetization      -0.0050589

 Broyden mixing:
  rms(total) = 0.44034E-03    rms(broyden)= 0.44027E-03
  rms(prec ) = 0.88675E-03
  weight for this iteration     100.00

 eigenvalues of (default mixing * dielectric matrix)
  average eigenvalue GAMMA=   1.4550
  4.1038  2.6636  2.2412  1.5382  1.2518  0.9293  0.9293  0.9757  0.7931  0.7557
  0.6195  0.6586

 Free energy of the ion-electron system (eV)
  ---------------------------------------------------
  alpha Z        PSCENC =         0.45950737
  Ewald energy   TEWEN  =       316.91513081
  -Hartree energ DENC   =     -1024.84478029
  -exchange      EXHF   =         0.00000000
  -V(xc)+E(xc)   XCENC  =        54.01459128
  PAW double counting   =       494.26360314     -494.44272656
  entropy T*S    EENTRO =        -0.00000000
  eigenvalues    EBANDS =      -222.41491368
  atomic energy  EATOM  =       856.20882267
  Solvation  Ediel_sol  =         0.00000000
  ---------------------------------------------------
  free energy    TOTEN  =       -19.84076526 eV

  energy without entropy =      -19.84076526  energy(sigma->0) =      -19.84076526


--------------------------------------------------------------------------------------------------------




--------------------------------------- Iteration      1(  18)  ---------------------------------------


    POTLOK:  cpu time    0.5309: real time    0.5323
    SETDIJ:  cpu time    0.2598: real time    0.2604
     EDDAV:  cpu time    0.4271: real time    0.4281
       DOS:  cpu time    0.0001: real time    0.0001
    CHARGE:  cpu time    0.2881: real time    0.2888
    MIXING:  cpu time    0.0219: real time    0.0220
    --------------------------------------------
      LOOP:  cpu time    1.5280: real time    1.5318

 eigenvalue-minimisations  :    88
 total energy-change (2. order) :-0.5103535E-03  (-0.4926738E-05)
 number of electron      16.0000000 magnetization      -0.0026761
 augmentation part       -0.1366067 magnetization      -0.0026748

 Broyden mixing:
  rms(total) = 0.31142E-03    rms(broyden)= 0.31133E-03
  rms(prec ) = 0.47855E-03
  weight for this iteration     100.00

 eigenvalues of (default mixing * dielectric matrix)
  average eigenvalue GAMMA=   1.5145
  4.3544  3.1410  2.3585  1.7235  1.6214  1.0060  1.0060  0.8590  0.8590  0.7959
  0.7004  0.6141  0.6489

 Free energy of the ion-electron system (eV)
  ---------------------------------------------------
  alpha Z        PSCENC =         0.45950737
  Ewald energy   TEWEN  =       316.91513081
  -Hartree energ DENC   =     -1024.86728136
  -exchange      EXHF   =         0.00000000
  -V(xc)+E(xc)   XCENC  =        54.01417990
  PAW double counting   =       494.24400441     -494.42287184
  entropy T*S    EENTRO =        -0.00000000
  eigenvalues    EBANDS =      -222.39276758
  atomic energy  EATOM  =       856.20882267
  Solvation  Ediel_sol  =         0.00000000
  ---------------------------------------------------
  free energy    TOTEN  =       -19.84127561 eV

  energy without entropy =      -19.84127561  energy(sigma->0) =      -19.84127561


--------------------------------------------------------------------------------------------------------




--------------------------------------- Iteration      1(  19)  ---------------------------------------


    POTLOK:  cpu time    0.5326: real time    0.5341
    SETDIJ:  cpu time    0.2574: real time    0.2581
     EDDAV:  cpu time    0.3627: real time    0.3636
       DOS:  cpu time    0.0001: real time    0.0001
    CHARGE:  cpu time    0.2898: real time    0.2905
    MIXING:  cpu time    0.0551: real time    0.0552
    --------------------------------------------
      LOOP:  cpu time    1.4978: real time    1.5016

 eigenvalue-minimisations  :    72
 total energy-change (2. order) :-0.5502823E-03  (-0.1003780E-05)
 number of electron      16.0000000 magnetization      -0.0010441
 augmentation part       -0.1366447 magnetization      -0.0010450

 Broyden mixing:
  rms(total) = 0.17807E-03    rms(broyden)= 0.17789E-03
  rms(prec ) = 0.27782E-03
  weight for this iteration     100.00

 eigenvalues of (default mixing * dielectric matrix)
  average eigenvalue GAMMA=   1.5770
  4.8678  3.5174  2.4099  2.1535  1.5378  1.2271  0.8682  0.8682  0.9998  0.9112
  0.7724  0.6845  0.6156  0.6439

 Free energy of the ion-electron system (eV)
  ---------------------------------------------------
  alpha Z        PSCENC =         0.45950737
  Ewald energy   TEWEN  =       316.91513081
  -Hartree energ DENC   =     -1024.87893839
  -exchange      EXHF   =         0.00000000
  -V(xc)+E(xc)   XCENC  =        54.01375377
  PAW double counting   =       494.23467344     -494.41345576
  entropy T*S    EENTRO =        -0.00000000
  eigenvalues    EBANDS =      -222.38131981
  atomic energy  EATOM  =       856.20882267
  Solvation  Ediel_sol  =         0.00000000
  ---------------------------------------------------
  free energy    TOTEN  =       -19.84182589 eV

  energy without entropy =      -19.84182589  energy(sigma->0) =      -19.84182589


--------------------------------------------------------------------------------------------------------




--------------------------------------- Iteration      1(  20)  ---------------------------------------


    POTLOK:  cpu time    0.5325: real time    0.5341
    SETDIJ:  cpu time    0.2574: real time    0.2580
     EDDAV:  cpu time    0.3619: real time    0.3628
       DOS:  cpu time    0.0001: real time    0.0001
    CHARGE:  cpu time    0.2722: real time    0.2729
    MIXING:  cpu time    0.0436: real time    0.0437
    --------------------------------------------
      LOOP:  cpu time    1.4678: real time    1.4716

 eigenvalue-minimisations  :    72
 total energy-change (2. order) :-0.3495650E-03  (-0.2725467E-06)
 number of electron      16.0000000 magnetization      -0.0000150
 augmentation part       -0.1366589 magnetization      -0.0000175

 Broyden mixing:
  rms(total) = 0.10147E-03    rms(broyden)= 0.10125E-03
  rms(prec ) = 0.17247E-03
  weight for this iteration     100.00

 eigenvalues of (default mixing * dielectric matrix)
  average eigenvalue GAMMA=   1.6856
  6.0470  3.8301  2.5619  2.3712  1.5920  1.5920  1.0353  1.0353  0.8668  0.8668
  0.7786  0.7786  0.6749  0.6145  0.6395

 Free energy of the ion-electron system (eV)
  ---------------------------------------------------
  alpha Z        PSCENC =         0.45950737
  Ewald energy   TEWEN  =       316.91513081
  -Hartree energ DENC   =     -1024.88417891
  -exchange      EXHF   =         0.00000000
  -V(xc)+E(xc)   XCENC  =        54.01331157
  PAW double counting   =       494.22337687     -494.40207253
  entropy T*S    EENTRO =        -0.00000000
  eigenvalues    EBANDS =      -222.37607332
  atomic energy  EATOM  =       856.20882267
  Solvation  Ediel_sol  =         0.00000000
  ---------------------------------------------------
  free energy    TOTEN  =       -19.84217546 eV

  energy without entropy =      -19.84217546  energy(sigma->0) =      -19.84217546


--------------------------------------------------------------------------------------------------------




--------------------------------------- Iteration      1(  21)  ---------------------------------------


    POTLOK:  cpu time    0.5497: real time    0.5520
    SETDIJ:  cpu time    0.2593: real time    0.2599
     EDDAV:  cpu time    0.3962: real time    0.3971
       DOS:  cpu time    0.0001: real time    0.0001
    CHARGE:  cpu time    0.2708: real time    0.2716
    MIXING:  cpu time    0.0431: real time    0.0432
    --------------------------------------------
      LOOP:  cpu time    1.5192: real time    1.5239

 eigenvalue-minimisations  :    80
 total energy-change (2. order) :-0.1090793E-03  (-0.1359543E-06)
 number of electron      16.0000000 magnetization       0.0003624
 augmentation part       -0.1366539 magnetization       0.0003616

 Broyden mixing:
  rms(total) = 0.53810E-04    rms(broyden)= 0.53443E-04
  rms(prec ) = 0.10608E-03
  weight for this iteration     100.00

 eigenvalues of (default mixing * dielectric matrix)
  average eigenvalue GAMMA=   1.7841
  7.5998  4.0416  2.8106  2.4173  1.8733  1.5343  1.0979  1.0979  0.8702  0.8702
  0.8709  0.8249  0.7304  0.6623  0.6131  0.6303

 Free energy of the ion-electron system (eV)
  ---------------------------------------------------
  alpha Z        PSCENC =         0.45950737
  Ewald energy   TEWEN  =       316.91513081
  -Hartree energ DENC   =     -1024.88911357
  -exchange      EXHF   =         0.00000000
  -V(xc)+E(xc)   XCENC  =        54.01321834
  PAW double counting   =       494.22166132     -494.40034955
  entropy T*S    EENTRO =        -0.00000000
  eigenvalues    EBANDS =      -222.37116194
  atomic energy  EATOM  =       856.20882267
  Solvation  Ediel_sol  =         0.00000000
  ---------------------------------------------------
  free energy    TOTEN  =       -19.84228454 eV

  energy without entropy =      -19.84228454  energy(sigma->0) =      -19.84228454


--------------------------------------------------------------------------------------------------------




--------------------------------------- Iteration      1(  22)  ---------------------------------------


    POTLOK:  cpu time    0.5359: real time    0.5379
    SETDIJ:  cpu time    0.2614: real time    0.2620
     EDDAV:  cpu time    0.3658: real time    0.3667
       DOS:  cpu time    0.0001: real time    0.0001
    CHARGE:  cpu time    0.2780: real time    0.2787
    MIXING:  cpu time    0.0335: real time    0.0336
    --------------------------------------------
      LOOP:  cpu time    1.4747: real time    1.4791

 eigenvalue-minimisations  :    72
 total energy-change (2. order) : 0.8280660E-05  (-0.3366205E-07)
 number of electron      16.0000000 magnetization       0.0002646
 augmentation part       -0.1366520 magnetization       0.0002644

 Broyden mixing:
  rms(total) = 0.36678E-04    rms(broyden)= 0.36139E-04
  rms(prec ) = 0.75485E-04
  weight for this iteration     100.00

 eigenvalues of (default mixing * dielectric matrix)
  average eigenvalue GAMMA=   1.7729
  8.0191  4.0743  2.8849  2.4116  1.8507  1.5620  1.2527  1.0853  0.8827  0.8827
  0.9721  0.8242  0.8242  0.7131  0.6594  0.6146  0.6258

 Free energy of the ion-electron system (eV)
  ---------------------------------------------------
  alpha Z        PSCENC =         0.45950737
  Ewald energy   TEWEN  =       316.91513081
  -Hartree energ DENC   =     -1024.89202061
  -exchange      EXHF   =         0.00000000
  -V(xc)+E(xc)   XCENC  =        54.01327574
  PAW double counting   =       494.22306925     -494.40177373
  entropy T*S    EENTRO =        -0.00000000
  eigenvalues    EBANDS =      -222.36828777
  atomic energy  EATOM  =       856.20882267
  Solvation  Ediel_sol  =         0.00000000
  ---------------------------------------------------
  free energy    TOTEN  =       -19.84227625 eV

  energy without entropy =      -19.84227625  energy(sigma->0) =      -19.84227625


--------------------------------------------------------------------------------------------------------




--------------------------------------- Iteration      1(  23)  ---------------------------------------


    POTLOK:  cpu time    0.5448: real time    0.5465
    SETDIJ:  cpu time    0.2611: real time    0.2619
     EDDAV:  cpu time    0.3362: real time    0.3370
       DOS:  cpu time    0.0001: real time    0.0001
    CHARGE:  cpu time    0.2807: real time    0.2813
    MIXING:  cpu time    0.0312: real time    0.0313
    --------------------------------------------
      LOOP:  cpu time    1.4541: real time    1.4581

 eigenvalue-minimisations  :    64
 total energy-change (2. order) :-0.1852450E-04  (-0.1672978E-07)
 number of electron      16.0000000 magnetization       0.0000964
 augmentation part       -0.1366496 magnetization       0.0000966

 Broyden mixing:
  rms(total) = 0.24363E-04    rms(broyden)= 0.23547E-04
  rms(prec ) = 0.45221E-04
  weight for this iteration     100.00

 eigenvalues of (default mixing * dielectric matrix)
  average eigenvalue GAMMA=   1.8144
  8.2887  4.1003  3.1453  2.4835  2.1880  1.9689  1.4803  1.1351  0.8692  0.8692
  1.0460  0.9409  0.7775  0.7775  0.6921  0.6562  0.6139  0.6257

 Free energy of the ion-electron system (eV)
  ---------------------------------------------------
  alpha Z        PSCENC =         0.45950737
  Ewald energy   TEWEN  =       316.91513081
  -Hartree energ DENC   =     -1024.89385436
  -exchange      EXHF   =         0.00000000
  -V(xc)+E(xc)   XCENC  =        54.01329607
  PAW double counting   =       494.22411063     -494.40282473
  entropy T*S    EENTRO =        -0.00000000
  eigenvalues    EBANDS =      -222.36648324
  atomic energy  EATOM  =       856.20882267
  Solvation  Ediel_sol  =         0.00000000
  ---------------------------------------------------
  free energy    TOTEN  =       -19.84229478 eV

  energy without entropy =      -19.84229478  energy(sigma->0) =      -19.84229478


--------------------------------------------------------------------------------------------------------




--------------------------------------- Iteration      1(  24)  ---------------------------------------


    POTLOK:  cpu time    0.5345: real time    0.5359
    SETDIJ:  cpu time    0.2588: real time    0.2596
     EDDAV:  cpu time    0.3625: real time    0.3634
       DOS:  cpu time    0.0001: real time    0.0001
    CHARGE:  cpu time    0.2877: real time    0.2884
    MIXING:  cpu time    0.0275: real time    0.0275
    --------------------------------------------
      LOOP:  cpu time    1.4711: real time    1.4749

 eigenvalue-minimisations  :    72
 total energy-change (2. order) :-0.1577633E-04  (-0.2163031E-07)
 number of electron      16.0000000 magnetization       0.0000329
 augmentation part       -0.1366451 magnetization       0.0000332

 Broyden mixing:
  rms(total) = 0.21536E-04    rms(broyden)= 0.20606E-04
  rms(prec ) = 0.27795E-04
  weight for this iteration     100.00

 eigenvalues of (default mixing * dielectric matrix)
  average eigenvalue GAMMA=   1.8713
  8.5665  4.4896  3.9731  2.7389  2.4021  1.8786  1.5012  1.2099  1.0721  0.8773
  0.8773  0.9241  0.9241  0.8165  0.7420  0.6795  0.6449  0.6119  0.6245

 Free energy of the ion-electron system (eV)
  ---------------------------------------------------
  alpha Z        PSCENC =         0.45950737
  Ewald energy   TEWEN  =       316.91513081
  -Hartree energ DENC   =     -1024.89533163
  -exchange      EXHF   =         0.00000000
  -V(xc)+E(xc)   XCENC  =        54.01331660
  PAW double counting   =       494.22486770     -494.40358628
  entropy T*S    EENTRO =        -0.00000000
  eigenvalues    EBANDS =      -222.36503780
  atomic energy  EATOM  =       856.20882267
  Solvation  Ediel_sol  =         0.00000000
  ---------------------------------------------------
  free energy    TOTEN  =       -19.84231056 eV

  energy without entropy =      -19.84231056  energy(sigma->0) =      -19.84231056


--------------------------------------------------------------------------------------------------------




--------------------------------------- Iteration      1(  25)  ---------------------------------------


    POTLOK:  cpu time    0.5275: real time    0.5340
    SETDIJ:  cpu time    0.2585: real time    0.2591
     EDDAV:  cpu time    0.3656: real time    0.3665
       DOS:  cpu time    0.0001: real time    0.0001
    CHARGE:  cpu time    0.2727: real time    0.2734
    MIXING:  cpu time    0.0437: real time    0.0438
    --------------------------------------------
      LOOP:  cpu time    1.4681: real time    1.4768

 eigenvalue-minimisations  :    72
 total energy-change (2. order) :-0.2575629E-05  (-0.4327579E-08)
 number of electron      16.0000000 magnetization       0.0000033
 augmentation part       -0.1366454 magnetization       0.0000034

 Broyden mixing:
  rms(total) = 0.17347E-04    rms(broyden)= 0.16182E-04
  rms(prec ) = 0.20622E-04
  weight for this iteration     100.00

 eigenvalues of (default mixing * dielectric matrix)
  average eigenvalue GAMMA=   1.8942
  8.8392  5.1686  4.0226  2.7852  2.4429  1.8494  1.6896  1.4190  1.1368  0.9778
  0.9778  0.8645  0.8645  0.7822  0.7822  0.7373  0.6763  0.6400  0.6144  0.6144

 Free energy of the ion-electron system (eV)
  ---------------------------------------------------
  alpha Z        PSCENC =         0.45950737
  Ewald energy   TEWEN  =       316.91513081
  -Hartree energ DENC   =     -1024.89540370
  -exchange      EXHF   =         0.00000000
  -V(xc)+E(xc)   XCENC  =        54.01332292
  PAW double counting   =       494.22456871     -494.40328345
  entropy T*S    EENTRO =        -0.00000000
  eigenvalues    EBANDS =      -222.36497848
  atomic energy  EATOM  =       856.20882267
  Solvation  Ediel_sol  =         0.00000000
  ---------------------------------------------------
  free energy    TOTEN  =       -19.84231313 eV

  energy without entropy =      -19.84231313  energy(sigma->0) =      -19.84231313


--------------------------------------------------------------------------------------------------------




--------------------------------------- Iteration      1(  26)  ---------------------------------------


    POTLOK:  cpu time    0.5372: real time    0.5387
    SETDIJ:  cpu time    0.2593: real time    0.2599
     EDDAV:  cpu time    0.3598: real time    0.3609
       DOS:  cpu time    0.0001: real time    0.0001
    CHARGE:  cpu time    0.2879: real time    0.2886
    MIXING:  cpu time    0.0285: real time    0.0286
    --------------------------------------------
      LOOP:  cpu time    1.4729: real time    1.4768

 eigenvalue-minimisations  :    72
 total energy-change (2. order) :-0.1789720E-05  (-0.1808615E-08)
 number of electron      16.0000000 magnetization      -0.0000106
 augmentation part       -0.1366480 magnetization      -0.0000106

 Broyden mixing:
  rms(total) = 0.79630E-05    rms(broyden)= 0.49318E-05
  rms(prec ) = 0.82678E-05
  weight for this iteration     100.00
  WARNING: grid for Broyden might be to small

 eigenvalues of (default mixing * dielectric matrix)
  average eigenvalue GAMMA=   1.9552
  9.2281  6.0688  4.0539  2.9042  2.4888  2.2735  1.8686  1.4560  1.1839  1.0582
  0.8698  0.8698  0.9520  0.9520  0.8103  0.7872  0.7095  0.6618  0.6333  0.6144
  0.6144

 Free energy of the ion-electron system (eV)
  ---------------------------------------------------
  alpha Z        PSCENC =         0.45950737
  Ewald energy   TEWEN  =       316.91513081
  -Hartree energ DENC   =     -1024.89516792
  -exchange      EXHF   =         0.00000000
  -V(xc)+E(xc)   XCENC  =        54.01332356
  PAW double counting   =       494.22400301     -494.40271429
  entropy T*S    EENTRO =        -0.00000000
  eigenvalues    EBANDS =      -222.36522014
  atomic energy  EATOM  =       856.20882267
  Solvation  Ediel_sol  =         0.00000000
  ---------------------------------------------------
  free energy    TOTEN  =       -19.84231492 eV

  energy without entropy =      -19.84231492  energy(sigma->0) =      -19.84231492


--------------------------------------------------------------------------------------------------------




--------------------------------------- Iteration      1(  27)  ---------------------------------------


    POTLOK:  cpu time    0.5338: real time    0.5352
    SETDIJ:  cpu time    0.2577: real time    0.2583
     EDDAV:  cpu time    0.3595: real time    0.3603
       DOS:  cpu time    0.0001: real time    0.0001
    CHARGE:  cpu time    0.2810: real time    0.2819
    MIXING:  cpu time    0.0371: real time    0.0372
    --------------------------------------------
      LOOP:  cpu time    1.4691: real time    1.4730

 eigenvalue-minimisations  :    72
 total energy-change (2. order) :-0.5921211E-06  (-0.1007575E-08)
 number of electron      16.0000000 magnetization      -0.0000108
 augmentation part       -0.1366491 magnetization      -0.0000109

 Broyden mixing:
  rms(total) = 0.79936E-05    rms(broyden)= 0.49829E-05
  rms(prec ) = 0.64427E-05
  weight for this iteration     100.00
  WARNING: grid for Broyden might be to small

 eigenvalues of (default mixing * dielectric matrix)
  average eigenvalue GAMMA=   1.9400
  9.3663  6.4605  4.0682  2.9884  2.4240  2.4240  1.8837  1.4576  1.2703  1.0852
  0.8632  0.8632  0.9141  0.9141  0.8471  0.8471  0.7848  0.7032  0.6582  0.6298
  0.6106  0.6174

 Free energy of the ion-electron system (eV)
  ---------------------------------------------------
  alpha Z        PSCENC =         0.45950737
  Ewald energy   TEWEN  =       316.91513081
  -Hartree energ DENC   =     -1024.89493558
  -exchange      EXHF   =         0.00000000
  -V(xc)+E(xc)   XCENC  =        54.01331865
  PAW double counting   =       494.22372190     -494.40243240
  entropy T*S    EENTRO =        -0.00000000
  eigenvalues    EBANDS =      -222.36544894
  atomic energy  EATOM  =       856.20882267
  Solvation  Ediel_sol  =         0.00000000
  ---------------------------------------------------
  free energy    TOTEN  =       -19.84231551 eV

  energy without entropy =      -19.84231551  energy(sigma->0) =      -19.84231551


--------------------------------------------------------------------------------------------------------




--------------------------------------- Iteration      1(  28)  ---------------------------------------


    POTLOK:  cpu time    0.5336: real time    0.5397
    SETDIJ:  cpu time    0.2571: real time    0.2577
     EDDAV:  cpu time    0.3923: real time    0.3932
       DOS:  cpu time    0.0001: real time    0.0001
    CHARGE:  cpu time    0.2852: real time    0.2859
    MIXING:  cpu time    0.0323: real time    0.0324
    --------------------------------------------
      LOOP:  cpu time    1.5005: real time    1.5089

 eigenvalue-minimisations  :    80
 total energy-change (2. order) :-0.3726543E-06  (-0.1849729E-09)
 number of electron      16.0000000 magnetization      -0.0000064
 augmentation part       -0.1366488 magnetization      -0.0000064

 Broyden mixing:
  rms(total) = 0.69294E-05    rms(broyden)= 0.29955E-05
  rms(prec ) = 0.38486E-05
  weight for this iteration     100.00
  WARNING: grid for Broyden might be to small

 eigenvalues of (default mixing * dielectric matrix)
  average eigenvalue GAMMA=   1.9737
  9.4944  6.8114  4.0784  3.2264  2.5841  2.4325  2.0099  1.7533  1.4370  1.1916
  1.0487  1.0086  1.0086  0.8699  0.8699  0.8189  0.8189  0.7326  0.6946  0.6540
  0.6296  0.6131  0.6083

 Free energy of the ion-electron system (eV)
  ---------------------------------------------------
  alpha Z        PSCENC =         0.45950737
  Ewald energy   TEWEN  =       316.91513081
  -Hartree energ DENC   =     -1024.89482087
  -exchange      EXHF   =         0.00000000
  -V(xc)+E(xc)   XCENC  =        54.01331295
  PAW double counting   =       494.22383667     -494.40254769
  entropy T*S    EENTRO =        -0.00000000
  eigenvalues    EBANDS =      -222.36555781
  atomic energy  EATOM  =       856.20882267
  Solvation  Ediel_sol  =         0.00000000
  ---------------------------------------------------
  free energy    TOTEN  =       -19.84231589 eV

  energy without entropy =      -19.84231589  energy(sigma->0) =      -19.84231589


--------------------------------------------------------------------------------------------------------




--------------------------------------- Iteration      1(  29)  ---------------------------------------


    POTLOK:  cpu time    0.5343: real time    0.5357
    SETDIJ:  cpu time    0.2571: real time    0.2577
     EDDAV:  cpu time    0.3654: real time    0.3664
       DOS:  cpu time    0.0001: real time    0.0001
    CHARGE:  cpu time    0.2883: real time    0.2890
    MIXING:  cpu time    0.0351: real time    0.0352
    --------------------------------------------
      LOOP:  cpu time    1.4803: real time    1.4840

 eigenvalue-minimisations  :    72
 total energy-change (2. order) :-0.3606989E-06  (-0.1884084E-09)
[...]

 Free energy of the ion-electron system (eV)
  ---------------------------------------------------
  alpha Z        PSCENC =         0.45950737
  Ewald energy   TEWEN  =       317.01838054
  -Hartree energ DENC   =     -1024.94733105
  -exchange      EXHF   =         0.00000000
  -V(xc)+E(xc)   XCENC  =        54.01556702
  PAW double counting   =       494.39590330     -494.57490632
  entropy T*S    EENTRO =        -0.00000000
  eigenvalues    EBANDS =      -222.41819067
  atomic energy  EATOM  =       856.20882267
  Solvation  Ediel_sol  =         0.00000000
  ---------------------------------------------------
  free energy    TOTEN  =       -19.84224714 eV

  energy without entropy =      -19.84224714  energy(sigma->0) =      -19.84224714


--------------------------------------------------------------------------------------------------------




--------------------------------------- Iteration     10(  16)  ---------------------------------------


    POTLOK:  cpu time    0.5469: real time    0.5484
    SETDIJ:  cpu time    0.2625: real time    0.2631
     EDDAV:  cpu time    0.2694: real time    0.2701
       DOS:  cpu time    0.0001: real time    0.0001
    CHARGE:  cpu time    0.2855: real time    0.2862
    MIXING:  cpu time    0.0285: real time    0.0286
    --------------------------------------------
      LOOP:  cpu time    1.3930: real time    1.3966

 eigenvalue-minimisations  :    48
 total energy-change (2. order) :-0.2738750E-07  ( 0.2235190E-10)
 number of electron      16.0000000 magnetization       0.0000000
 augmentation part       -0.1362879 magnetization      -0.0000000

 Broyden mixing:
  rms(total) = 0.62971E-05    rms(broyden)= 0.32362E-06
  rms(prec ) = 0.50125E-06
  weight for this iteration     100.00
  WARNING: grid for Broyden might be to small

 eigenvalues of (default mixing * dielectric matrix)
  average eigenvalue GAMMA=   2.0979
  8.3197  5.1195  2.9382  2.5963  1.9193  1.9193  1.5650  1.1396  0.9669  0.9669
  0.9558  0.8506  0.8506  0.7520  0.6089

 Free energy of the ion-electron system (eV)
  ---------------------------------------------------
  alpha Z        PSCENC =         0.45950737
  Ewald energy   TEWEN  =       317.01838054
  -Hartree energ DENC   =     -1024.94732139
  -exchange      EXHF   =         0.00000000
  -V(xc)+E(xc)   XCENC  =        54.01556659
  PAW double counting   =       494.39588158     -494.57488472
  entropy T*S    EENTRO =        -0.00000000
  eigenvalues    EBANDS =      -222.41819982
  atomic energy  EATOM  =       856.20882267
  Solvation  Ediel_sol  =         0.00000000
  ---------------------------------------------------
  free energy    TOTEN  =       -19.84224717 eV

  energy without entropy =      -19.84224717  energy(sigma->0) =      -19.84224717


--------------------------------------------------------------------------------------------------------




--------------------------------------- Iteration     10(  17)  ---------------------------------------


    POTLOK:  cpu time    0.5466: real time    0.5483
    SETDIJ:  cpu time    0.2626: real time    0.2633
     EDDAV:  cpu time    0.2710: real time    0.2718
       DOS:  cpu time    0.0001: real time    0.0001
    CHARGE:  cpu time    0.2855: real time    0.2862
    MIXING:  cpu time    0.0269: real time    0.0269
    --------------------------------------------
      LOOP:  cpu time    1.3928: real time    1.3966

 eigenvalue-minimisations  :    48
 total energy-change (2. order) :-0.1007106E-07  ( 0.2898926E-10)
 number of electron      16.0000000 magnetization       0.0000000
 augmentation part       -0.1362880 magnetization       0.0000000

 Broyden mixing:
  rms(total) = 0.62918E-05    rms(broyden)= 0.19241E-06
  rms(prec ) = 0.28704E-06
  weight for this iteration     100.00
  WARNING: grid for Broyden might be to small

 eigenvalues of (default mixing * dielectric matrix)
  average eigenvalue GAMMA=   2.1593
  8.4549  5.8030  3.0358  3.0358  2.5250  1.8420  1.6299  1.1756  1.1756  0.9609
  0.9609  1.0271  0.8451  0.8451  0.6268  0.6055

 Free energy of the ion-electron system (eV)
  ---------------------------------------------------
  alpha Z        PSCENC =         0.45950737
  Ewald energy   TEWEN  =       317.01838054
  -Hartree energ DENC   =     -1024.94732129
  -exchange      EXHF   =         0.00000000
  -V(xc)+E(xc)   XCENC  =        54.01556671
  PAW double counting   =       494.39588428     -494.57488751
  entropy T*S    EENTRO =        -0.00000000
  eigenvalues    EBANDS =      -222.41819996
  atomic energy  EATOM  =       856.20882267
  Solvation  Ediel_sol  =         0.00000000
  ---------------------------------------------------
  free energy    TOTEN  =       -19.84224718 eV

  energy without entropy =      -19.84224718  energy(sigma->0) =      -19.84224718


--------------------------------------------------------------------------------------------------------




--------------------------------------- Iteration     10(  18)  ---------------------------------------


    POTLOK:  cpu time    0.5465: real time    0.5481
    SETDIJ:  cpu time    0.2594: real time    0.2600
     EDDAV:  cpu time    0.3309: real time    0.3319
       DOS:  cpu time    0.0001: real time    0.0001
    --------------------------------------------
      LOOP:  cpu time    1.1369: real time    1.1400

 eigenvalue-minimisations  :    64
 total energy-change (2. order) :-0.2853540E-08  ( 0.3395328E-10)
 number of electron      16.0000000 magnetization       0.0000000
 augmentation part       -0.1362880 magnetization       0.0000000

 Free energy of the ion-electron system (eV)
  ---------------------------------------------------
  alpha Z        PSCENC =         0.45950737
  Ewald energy   TEWEN  =       317.01838054
  -Hartree energ DENC   =     -1024.94732308
  -exchange      EXHF   =         0.00000000
  -V(xc)+E(xc)   XCENC  =        54.01556687
  PAW double counting   =       494.39588849     -494.57489176
  entropy T*S    EENTRO =        -0.00000000
  eigenvalues    EBANDS =      -222.41819829
  atomic energy  EATOM  =       856.20882267
  Solvation  Ediel_sol  =         0.00000000
  ---------------------------------------------------
  free energy    TOTEN  =       -19.84224718 eV

  energy without entropy =      -19.84224718  energy(sigma->0) =      -19.84224718


--------------------------------------------------------------------------------------------------------




 average (electrostatic) potential at core
  the test charge radii are     0.7215  0.9698  0.6991
  (the norm of the test charge is              1.0000)
       1 -82.5863       2 -97.0214       3 -62.5567
 
 
 
 E-fermi :  -7.0592     XC(G=0):  -0.4390     alpha+bet : -0.1589


 spin component 1

 k-point     1 :       0.0000    0.0000    0.0000
  band No.  band energies     occupation 
      1     -28.3590      1.00000
      2     -20.4404      1.00000
      3     -13.2615      1.00000
      4     -11.5131      1.00000
      5     -11.4516      1.00000
      6     -11.4514      1.00000
      7      -7.3661      1.00000
      8      -7.3660      1.00000
      9      -1.8938      0.00000
     10      -1.8937      0.00000
     11      -0.6143      0.00000
     12       0.2590      0.00000
     13       0.3671      0.00000
     14       0.5553      0.00000
     15       0.7561      0.00000
     16       0.7607      0.00000

 spin component 2

 k-point     1 :       0.0000    0.0000    0.0000
  band No.  band energies     occupation 
      1     -28.3590      1.00000
      2     -20.4404      1.00000
      3     -13.2615      1.00000
      4     -11.5131      1.00000
      5     -11.4516      1.00000
      6     -11.4514      1.00000
      7      -7.3661      1.00000
      8      -7.3660      1.00000
      9      -1.8938      0.00000
     10      -1.8937      0.00000
     11      -0.6143      0.00000
     12       0.2590      0.00000
     13       0.3671      0.00000
     14       0.5553      0.00000
     15       0.7561      0.00000
     16       0.7607      0.00000


--------------------------------------------------------------------------------------------------------


 soft charge-density along one line, spin component           1
         0         1         2         3         4         5         6         7         8         9
 total charge-density along one line
 
 soft charge-density along one line, spin component           2
         0         1         2         3         4         5         6         7         8         9
 total charge-density along one line
 
 pseudopotential strength for first ion, spin component:           1
 14.096  -0.576  -0.010   0.145   0.046   0.001  -0.008  -0.003
 -0.576   0.130   0.001  -0.017  -0.005  -0.000   0.003   0.001
 -0.010   0.001 -10.848   0.011   0.004   0.379  -0.002  -0.001
  0.145  -0.017   0.011 -11.003  -0.050  -0.002   0.402   0.007
  0.046  -0.005   0.004  -0.050 -10.863  -0.001   0.007   0.381
  0.001  -0.000   0.379  -0.002  -0.001   0.099   0.000   0.000
 -0.008   0.003  -0.002   0.402   0.007   0.000   0.093  -0.002
 -0.003   0.001  -0.001   0.007   0.381   0.000  -0.002   0.099
 pseudopotential strength for first ion, spin component:           2
 14.096  -0.576  -0.010   0.145   0.046   0.001  -0.008  -0.003
 -0.576   0.130   0.001  -0.017  -0.005  -0.000   0.003   0.001
 -0.010   0.001 -10.848   0.011   0.004   0.379  -0.002  -0.001
  0.145  -0.017   0.011 -11.003  -0.050  -0.002   0.402   0.007
  0.046  -0.005   0.004  -0.050 -10.863  -0.001   0.007   0.381
  0.001  -0.000   0.379  -0.002  -0.001   0.099   0.000   0.000
 -0.008   0.003  -0.002   0.402   0.007   0.000   0.093  -0.002
 -0.003   0.001  -0.001   0.007   0.381   0.000  -0.002   0.099
 total augmentation occupancy for first ion, spin component:           1
  1.919   0.179  -0.010   0.141   0.045   0.006  -0.079  -0.025
  0.179   0.056   0.015  -0.210  -0.067   0.004  -0.053  -0.017
 -0.010   0.015   1.533  -0.006  -0.002   0.127  -0.011  -0.004
  0.141  -0.210  -0.006   1.612   0.025  -0.011   0.279   0.049
  0.045  -0.067  -0.002   0.025   1.541  -0.004   0.049   0.142
  0.006   0.004   0.127  -0.011  -0.004   0.015  -0.003  -0.001
 -0.079  -0.053  -0.011   0.279   0.049  -0.003   0.059   0.014
 -0.025  -0.017  -0.004   0.049   0.142  -0.001   0.014   0.019
 total augmentation occupancy for first ion, spin component:           2
  0.000   0.000  -0.000   0.000   0.000   0.000  -0.000  -0.000
  0.000   0.000   0.000   0.000   0.000  -0.000   0.000   0.000
 -0.000   0.000   0.000   0.000  -0.000  -0.000  -0.000   0.000
  0.000   0.000   0.000   0.000  -0.000  -0.000  -0.000  -0.000
  0.000   0.000  -0.000  -0.000   0.000   0.000   0.000  -0.000
  0.000  -0.000  -0.000  -0.000   0.000  -0.000  -0.000   0.000
 -0.000   0.000  -0.000  -0.000   0.000  -0.000  -0.000  -0.000
 -0.000   0.000   0.000  -0.000  -0.000   0.000  -0.000  -0.000


------------------------ aborting loop because EDIFF is reached ----------------------------------------


 


 total charge     
 
# of ion       s       p       d       tot
------------------------------------------
    1        1.633   3.534   0.000   5.167
    2        1.357   2.410   0.000   3.767
    3        0.927   1.689   0.000   2.616
--------------------------------------------------
tot          3.916   7.634   0.000  11.550
 


 magnetization (x)
 
# of ion       s       p       d       tot
------------------------------------------
    1       -0.000   0.000   0.000   0.000
    2        0.000   0.000   0.000   0.000
    3        0.000  -0.000   0.000  -0.000
--------------------------------------------------
tot          0.000   0.000   0.000   0.000
 
    CHARGE:  cpu time    0.2873: real time    0.2882
    FORLOC:  cpu time    0.0290: real time    0.0291
    FORNL :  cpu time    1.6574: real time    1.6614
    STRESS:  cpu time    5.2132: real time    5.2262
    FORCOR:  cpu time    0.5096: real time    0.5109
    FORHAR:  cpu time    0.0763: real time    0.0765
    MIXING:  cpu time    0.0173: real time    0.0174
    OFIELD:  cpu time    0.0000: real time    0.0000

  FORCE on cell =-STRESS in cart. coord.  units (eV):
  Direction    XX          YY          ZZ          XY          YZ          ZX
  --------------------------------------------------------------------------------------
  Alpha Z     0.45951     0.45951     0.45951
  Ewald     -47.85330  -109.67041   474.54209   -14.51544   -44.68518   200.21974
  Hartree   277.79404   248.82837   498.32492    -6.79944   -20.59677    92.29009
  E(xc)     -65.44533   -65.60500   -63.97348    -0.03749    -0.11716     0.52497
  Local    -486.91925  -401.20389 -1183.12279    20.12514    61.56245  -275.84413
  n-local    47.90303    47.85520    48.35036    -0.01134    -0.03557     0.15986
  augment   -11.51239   -11.52051   -11.43210    -0.00184    -0.00602     0.02773
  Kinetic   284.74193   290.00859   236.18017     1.23708     3.86459   -17.31687
  Fock        0.00000     0.00000     0.00000     0.00000     0.00000     0.00000
  -------------------------------------------------------------------------------------
  Total      -0.83177    -0.84815    -0.67133    -0.00334    -0.01366     0.06140
  in kB      -0.55723    -0.56821    -0.44974    -0.00224    -0.00915     0.04113
  external pressure =       -0.53 kB  Pullay stress =        0.00 kB


 VOLUME and BASIS-vectors are now :
 -----------------------------------------------------------------------------
  energy-cutoff  :      400.00
  volume of cell :     2391.54
      direct lattice vectors                 reciprocal lattice vectors
    13.675000191  0.000000000  0.000000000     0.073126142  0.042219398  0.000000000
    -6.837500095 11.842897562  0.000000000     0.000000000  0.084438795  0.000000000
     0.000000000  0.000000000 14.767000198     0.000000000  0.000000000  0.067718561

  length of vectors
    13.675000191 13.675000191 14.767000198     0.084438795  0.084438795  0.067718561


 FORCES acting on ions
    electron-ion (+dipol)            ewald-force                    non-local-force                 convergence-correction
 -----------------------------------------------------------------------------------------------
   -.775E+02 0.173E+02 -.243E+03   0.963E+02 -.215E+02 0.302E+03   -.188E+02 0.420E+01 -.587E+02   0.326E-06 -.922E-07 0.154E-05
   0.629E+02 -.140E+02 0.198E+03   -.630E+02 0.141E+02 -.198E+03   0.168E+00 -.370E-01 0.531E+00   -.720E-06 -.106E-05 -.117E-05
   0.310E+02 -.694E+01 0.966E+02   -.332E+02 0.743E+01 -.104E+03   0.216E+01 -.482E+00 0.673E+01   0.977E-06 -.892E-06 0.449E-05
 -----------------------------------------------------------------------------------------------
   0.165E+02 -.368E+01 0.514E+02   0.000E+00 -.178E-14 -.284E-13   -.165E+02 0.368E+01 -.514E+02   0.583E-06 -.204E-05 0.487E-05
 
 
 POSITION                                       TOTAL-FORCE (eV/Angst)
 -----------------------------------------------------------------------------------
      7.65049      6.09832     10.07055         0.027188     -0.005973      0.090951
      6.81860      6.28397      7.47139         0.011497     -0.002647      0.037999
      7.29313      6.17812      8.95481        -0.038685      0.008620     -0.128950
 -----------------------------------------------------------------------------------
    total drift:                               -0.000365      0.000480     -0.000100


--------------------------------------------------------------------------------------------------------



  FREE ENERGIE OF THE ION-ELECTRON SYSTEM (eV)
  ---------------------------------------------------
  free  energy   TOTEN  =       -19.84224718 eV

  energy  without entropy=      -19.84224718  energy(sigma->0) =      -19.84224718
 
 d Force =-0.6483933E-04[-0.138E-03, 0.789E-05]  d Energy =-0.6389315E-04-0.946E-06
 d Force =-0.1107714E+00[-0.111E+00,-0.111E+00]  d Ewald  =-0.1107714E+00 0.251E-07


--------------------------------------------------------------------------------------------------------


    POTLOK:  cpu time    0.8022: real time    0.8042


--------------------------------------------------------------------------------------------------------


DOING DYMAT, READING DISPLACECAR
FOR   1 OUT OF   1
 HIPREC POSITION (A)    
 -----------------------------------------------------------------------------------
 DYNMAT: Loop at J=           1
 DYNMAT: Before DIRKAR
 DYNMAT: After DIRKAR
       7.650494313543833       6.098324720986046      10.070551236490191
 DYNMAT: Loop at J=           2
 DYNMAT: Before DIRKAR
 DYNMAT: After DIRKAR
       6.818595520134151       6.283967687188677       7.471392684969005
 DYNMAT: Loop at J=           3
 DYNMAT: Before DIRKAR
 DYNMAT: After DIRKAR
       7.293134696321214       6.178119060451222       8.954810612941875
 HIPREC TOTAL-FORCE (eV/A)    
 -----------------------------------------------------------------------------------
       0.027187949847169      -0.005973068664846       0.090950787900178
       0.011496632838922      -0.002646609758633       0.037999186592774
      -0.038684582686090       0.008619678423479      -0.128949974492952
DYMAT: ------------------------------
DYMAT: DEGREE OF FREEDOM   1  1  1
DYMAT: ------------------------------
DYMAT: DEGREE OF FREEDOM   1  2  2
DYMAT: ------------------------------
DYMAT: DEGREE OF FREEDOM   1  3  3
DYMAT: ------------------------------
DYMAT: DEGREE OF FREEDOM   2  1  4
DYMAT: ------------------------------
DYMAT: DEGREE OF FREEDOM   2  2  5
DYMAT: ------------------------------
DYMAT: DEGREE OF FREEDOM   2  3  6
DYMAT: ------------------------------
DYMAT: DEGREE OF FREEDOM   3  1  7
DYMAT: ------------------------------
DYMAT: DEGREE OF FREEDOM   3  2  8
DYMAT: ------------------------------
DYMAT: DEGREE OF FREEDOM   3  3  9
DYMAT: LEAVING
 stress matrix after NEB project (eV)
     -0.83177     -0.00334      0.06140
     -0.00334     -0.84815     -0.01366
      0.06140     -0.01366     -0.67133
  FORCES: max atom, RMS     0.134903    0.098029
  FORCE total and by dimension    0.169791    0.128950
  Stress total and by dimension    1.367409    0.848151


--------------------------------------------------------------------------------------------------------


     LOOP+:  cpu time   35.5649: real time   35.7828
    4ORBIT:  cpu time    0.0000: real time    0.0000
 


 total charge     
 
# of ion       s       p       d       tot
------------------------------------------
    1        1.633   3.534   0.000   5.167
    2        1.357   2.410   0.000   3.767
    3        0.927   1.689   0.000   2.616
--------------------------------------------------
tot          3.916   7.634   0.000  11.550
 


 magnetization (x)
 
# of ion       s       p       d       tot
------------------------------------------
    1       -0.000   0.000   0.000   0.000
    2        0.000   0.000   0.000   0.000
    3        0.000  -0.000   0.000  -0.000
--------------------------------------------------
tot          0.000   0.000   0.000   0.000
 

 total amount of memory used by VASP MPI-rank0   148627. kBytes
=======================================================================

   base      :      30000. kBytes
   nonlr-proj:        467. kBytes
   fftplans  :      63994. kBytes
   grid      :      52770. kBytes
   one-center:          6. kBytes
   wavefun   :       1390. kBytes
 
  
  
 General timing and accounting informations for this job:
 ========================================================
  
                  Total CPU time used (sec):      312.869
                            User time (sec):      291.606
                          System time (sec):       21.262
                         Elapsed time (sec):      315.452
  
                   Maximum memory used (kb):      256520.
                   Average memory used (kb):           0.
  
                          Minor page faults:       340093
                          Major page faults:            0
                 Voluntary context switches:         1258
