>>>  VASP 5.4.4 with BEEF-vdw and vtst
--------------------------------------------------------
>>>  Job information
     SLURM_JOBID=8597942
     SLURM_JOB_NODELIST=cpn-u22-18
     SLURM_NNODES=1
     SLURMTMPDIR=/scratch/8597942
     working directory = /projects/academic/ericwalk/ruthbell/Ads_Ag-SSZ13/O2_gas/PBE
--------------------------------------------------------
>>>  Module information
--------------------------------------------------------
>>>  Running Configuration
NPROCS=16
--------------------------------------------------------
>>>  Job started at Tue Jun  7 11:56:40 EDT 2022
--------------------------------------------------------
 running on   16 total cores
 distrk:  each k-point on   16 cores,    1 groups
 distr:  one band on    4 cores,    4 groups
 using from now: INCAR     
 vasp.5.4.4.18Apr17-6-g9f103f2a35 (build Dec 31 2018 11:41:54) complex          
  
 POSCAR found type information on POSCAR  O 
 POSCAR found :  1 types and       2 ions
 scaLAPACK will be used

 ----------------------------------------------------------------------------- 
|                                                                             |
|  ADVICE TO THIS USER RUNNING 'VASP/VAMP'   (HEAR YOUR MASTER'S VOICE ...):  |
|                                                                             |
|      You have a (more or less) 'small supercell' and for smaller cells      |
|      it is recommended  to use the reciprocal-space projection scheme!      |
|      The real space optimization is not  efficient for small cells and it   |
|      is also less accurate ...                                              |
|      Therefore set LREAL=.FALSE. in the  INCAR file                         |
|                                                                             |
 ----------------------------------------------------------------------------- 

 LDA part: xc-table for Pade appr. of Perdew
 POSCAR found type information on POSCAR  O 
 POSCAR found :  1 types and       2 ions
 POSCAR, INCAR and KPOINTS ok, starting setup
 FFT: planning ...
 WAVECAR not read
 WARNING: random wavefunctions but no delay for mixing, default for NELMDL
 entering main loop
       N       E                     dE             d eps       ncg     rms          rms(c)
DAV:   1     0.848384495952E+02    0.84838E+02   -0.24709E+03    80   0.370E+02
DAV:   2     0.108891463471E+02   -0.73949E+02   -0.73775E+02    72   0.121E+02
DAV:   3    -0.570893917999E+01   -0.16598E+02   -0.16332E+02    96   0.403E+01
DAV:   4    -0.973076940557E+01   -0.40218E+01   -0.25165E+01    72   0.122E+01
DAV:   5    -0.980241835316E+01   -0.71649E-01   -0.71483E-01    56   0.216E+00    0.631E+00
DAV:   6    -0.956310670707E+01    0.23931E+00   -0.11369E+00    48   0.903E+00    0.292E+00
DAV:   7    -0.984342039988E+01   -0.28031E+00   -0.19051E-01    48   0.395E+00    0.140E+00
DAV:   8    -0.984224437872E+01    0.11760E-02   -0.71765E-02    52   0.210E+00    0.402E-01
DAV:   9    -0.985098786157E+01   -0.87435E-02   -0.56674E-03    56   0.646E-01    0.180E-01
DAV:  10    -0.985213896719E+01   -0.11511E-02   -0.70454E-04    48   0.239E-01    0.402E-02
DAV:  11    -0.985239745360E+01   -0.25849E-03   -0.63674E-05    48   0.677E-02    0.140E-02
DAV:  12    -0.985256994796E+01   -0.17249E-03   -0.15295E-05    48   0.333E-02    0.681E-03
DAV:  13    -0.985268504200E+01   -0.11509E-03   -0.54371E-06    52   0.182E-02    0.425E-03
DAV:  14    -0.985277490302E+01   -0.89861E-04   -0.53018E-06    48   0.155E-02    0.275E-03
DAV:  15    -0.985283677714E+01   -0.61874E-04   -0.53740E-06    48   0.123E-02    0.172E-03
DAV:  16    -0.985290648498E+01   -0.69708E-04   -0.34307E-06    64   0.885E-03    0.119E-03
DAV:  17    -0.985295085914E+01   -0.44374E-04   -0.15941E-06    48   0.598E-03    0.644E-04
DAV:  18    -0.985297479891E+01   -0.23940E-04   -0.62007E-07    60   0.359E-03    0.474E-04
DAV:  19    -0.985300380808E+01   -0.29009E-04   -0.11041E-06    52   0.429E-03    0.284E-04
DAV:  20    -0.985301268794E+01   -0.88799E-05   -0.23604E-07    52   0.216E-03
   1 F= -.98530127E+01 E0= -.98530127E+01  d E =-.985301E+01  mag=     2.0000
 BRION: g(F)=  0.406E-07 g(S)=  0.000E+00
 reached required accuracy - stopping structural energy minimisation
--------------------------------------------------------
>>>  Job finished at Tue Jun  7 11:57:22 EDT 2022
