>>>  VASP 5.4.4 with BEEF-vdw and vtst
--------------------------------------------------------
>>>  Job information
     SLURM_JOBID=8771399
     SLURM_JOB_NODELIST=cpn-u23-14
     SLURM_NNODES=1
     SLURMTMPDIR=/scratch/8771399
     working directory = /projects/academic/ericwalk/ruthbell/Ads_Ag-SSZ13/SO2_gas/vtst
--------------------------------------------------------
>>>  Module information
--------------------------------------------------------
>>>  Running Configuration
NPROCS=16
--------------------------------------------------------
>>>  Job started at Wed Jun 29 16:25:17 EDT 2022
--------------------------------------------------------
 running on   16 total cores
 distrk:  each k-point on   16 cores,    1 groups
 distr:  one band on    4 cores,    4 groups
 using from now: INCAR     
 vasp.5.4.4.18Apr17-6-g9f103f2a35 (build Dec 31 2018 11:41:54) complex          
  
 POSCAR found type information on POSCAR  O  S 
 POSCAR found :  2 types and       3 ions
 scaLAPACK will be used

 ----------------------------------------------------------------------------- 
|                                                                             |
|  ADVICE TO THIS USER RUNNING 'VASP/VAMP'   (HEAR YOUR MASTER'S VOICE ...):  |
|                                                                             |
|      You have a (more or less) 'small supercell' and for smaller cells      |
|      it is recommended  to use the reciprocal-space projection scheme!      |
|      The real space optimization is not  efficient for small cells and it   |
|      is also less accurate ...                                              |
|      Therefore set LREAL=.FALSE. in the  INCAR file                         |
|                                                                             |
 ----------------------------------------------------------------------------- 

 LDA part: xc-table for Pade appr. of Perdew
 POSCAR found type information on POSCAR  O  S 
 POSCAR found :  2 types and       3 ions
 POSCAR, INCAR and KPOINTS ok, starting setup
 FFT: planning ...
 WAVECAR not read
 entering main loop
       N       E                     dE             d eps       ncg     rms          rms(c)
DAV:   1     0.131909523515E+03    0.13191E+03   -0.39776E+03    96   0.456E+02
DAV:   2     0.181981316589E+02   -0.11371E+03   -0.11183E+03   120   0.123E+02
DAV:   3    -0.159271426070E+02   -0.34125E+02   -0.33957E+02    88   0.609E+01
DAV:   4    -0.188387326581E+02   -0.29116E+01   -0.29049E+01    64   0.194E+01
DAV:   5    -0.188804585087E+02   -0.41726E-01   -0.41691E-01   104   0.260E+00    0.137E+01
DAV:   6    -0.861550283184E+01    0.10265E+02   -0.18267E+01    72   0.287E+01    0.408E+00
DAV:   7    -0.129044216056E+02   -0.42889E+01   -0.36326E+00    88   0.106E+01    0.265E+00
DAV:   8    -0.152100662645E+02   -0.23056E+01   -0.10848E+00    80   0.582E+00    0.104E+00
DAV:   9    -0.159094628855E+02   -0.69940E+00   -0.26367E-01    88   0.250E+00    0.423E-01
DAV:  10    -0.162555183348E+02   -0.34606E+00   -0.40154E-02   104   0.104E+00    0.256E-01
DAV:  11    -0.167349691698E+02   -0.47945E+00   -0.21819E-02    72   0.664E-01    0.135E-01
DAV:  12    -0.169078365139E+02   -0.17287E+00   -0.54196E-03    88   0.309E-01    0.812E-02
DAV:  13    -0.170172229749E+02   -0.10939E+00   -0.19571E-03    80   0.185E-01    0.434E-02
DAV:  14    -0.170535056073E+02   -0.36283E-01   -0.19264E-03   104   0.163E-01    0.254E-02
DAV:  15    -0.170575230641E+02   -0.40175E-02   -0.14331E-04    72   0.608E-02    0.157E-02
DAV:  16    -0.170576057698E+02   -0.82706E-04   -0.21171E-04    64   0.661E-02    0.126E-02
DAV:  17    -0.170587772183E+02   -0.11714E-02   -0.13950E-04    72   0.471E-02    0.910E-03
DAV:  18    -0.170611772576E+02   -0.24000E-02   -0.47894E-05    80   0.301E-02    0.500E-03
DAV:  19    -0.170625447496E+02   -0.13675E-02   -0.22008E-05    80   0.209E-02    0.235E-03
DAV:  20    -0.170626987571E+02   -0.15401E-03   -0.48035E-06    88   0.101E-02    0.173E-03
DAV:  21    -0.170627061298E+02   -0.73728E-05   -0.14293E-06    80   0.646E-03    0.107E-03
DAV:  22    -0.170627662833E+02   -0.60153E-04   -0.12417E-06    88   0.580E-03    0.675E-04
DAV:  23    -0.170628303389E+02   -0.64056E-04   -0.73097E-07    96   0.456E-03    0.750E-04
DAV:  24    -0.170628477995E+02   -0.17461E-04   -0.28951E-07    80   0.244E-03    0.379E-04
DAV:  25    -0.170628504807E+02   -0.26812E-05   -0.84306E-08    96   0.147E-03    0.146E-04
DAV:  26    -0.170628532321E+02   -0.27514E-05   -0.40228E-08    80   0.906E-04    0.162E-04
DAV:  27    -0.170628565076E+02   -0.32756E-05   -0.30506E-08    88   0.697E-04    0.114E-04
DAV:  28    -0.170628586626E+02   -0.21550E-05   -0.14900E-08    80   0.524E-04    0.816E-05
DAV:  29    -0.170628593786E+02   -0.71594E-06   -0.31446E-09    88   0.297E-04    0.779E-05
DAV:  30    -0.170628595306E+02   -0.15208E-06   -0.38804E-10    72   0.146E-04    0.773E-05
DAV:  31    -0.170628595872E+02   -0.56572E-07   -0.22959E-11    72   0.936E-05    0.768E-05
DAV:  32    -0.170628596061E+02   -0.18872E-07    0.14200E-10    80   0.517E-05    0.766E-05
DAV:  33    -0.170628596178E+02   -0.11751E-07    0.18954E-10    80   0.401E-05    0.765E-05
DAV:  34    -0.170628596209E+02   -0.30554E-08    0.22396E-10    72   0.233E-05
   1 F= -.17062860E+02 E0= -.17062860E+02  d E =-.170629E+02  mag=     0.0000
quench:  g(F)=  0.000E+00 g(S)=  0.000E+00 dE (1.order)= 0.000E+00
 bond charge predicted
       N       E                     dE             d eps       ncg     rms          rms(c)
DAV:   1    -0.170628468876E+02    0.12730E-04   -0.54969E-03    64   0.571E-01    0.130E-02
DAV:   2    -0.170628473874E+02   -0.49977E-06   -0.82949E-05    96   0.681E-02    0.766E-03
DAV:   3    -0.170628478136E+02   -0.42622E-06   -0.16962E-06    96   0.123E-02    0.408E-03
DAV:   4    -0.170628507138E+02   -0.29002E-05   -0.13596E-06    96   0.942E-03    0.887E-04
DAV:   5    -0.170628508460E+02   -0.13225E-06   -0.16890E-07    96   0.330E-03    0.638E-04
DAV:   6    -0.170628508890E+02   -0.43006E-07   -0.20869E-08    80   0.101E-03    0.290E-04
DAV:   7    -0.170628508941E+02   -0.50536E-08   -0.65772E-09    64   0.600E-04
   2 F= -.17062851E+02 E0= -.17062851E+02  d E =0.872682E-05  mag=     0.0000
quench:  g(F)=  0.000E+00 g(S)=  0.000E+00 dE (1.order)= 0.000E+00
 bond charge predicted
       N       E                     dE             d eps       ncg     rms          rms(c)
DAV:   1    -0.170628420784E+02    0.88106E-05   -0.11248E-02    64   0.813E-01    0.194E-02
DAV:   2    -0.170628468486E+02   -0.47702E-05   -0.17920E-04    96   0.976E-02    0.956E-03
DAV:   3    -0.170628483902E+02   -0.15416E-05   -0.39523E-06    96   0.180E-02    0.538E-03
DAV:   4    -0.170628538441E+02   -0.54539E-05   -0.25499E-06    96   0.121E-02    0.126E-03
DAV:   5    -0.170628542287E+02   -0.38461E-06   -0.28391E-07    80   0.421E-03    0.807E-04
DAV:   6    -0.170628542291E+02   -0.38676E-09   -0.36677E-08    80   0.128E-03
   3 F= -.17062854E+02 E0= -.17062854E+02  d E =-.333502E-05  mag=     0.0000
quench:  g(F)=  0.000E+00 g(S)=  0.000E+00 dE (1.order)= 0.000E+00
 bond charge predicted
       N       E                     dE             d eps       ncg     rms          rms(c)
DAV:   1    -0.170628336453E+02    0.20583E-04   -0.11078E-02    64   0.820E-01    0.202E-02
DAV:   2    -0.170628396421E+02   -0.59969E-05   -0.19490E-04    96   0.104E-01    0.118E-02
DAV:   3    -0.170628395689E+02    0.73183E-07   -0.41055E-06    64   0.196E-02    0.661E-03
DAV:   4    -0.170628434763E+02   -0.39074E-05   -0.39293E-06    96   0.151E-02    0.149E-03
DAV:   5    -0.170628436554E+02   -0.17911E-06   -0.44571E-07    80   0.538E-03    0.100E-03
DAV:   6    -0.170628436573E+02   -0.18817E-08   -0.63313E-08    80   0.162E-03
   4 F= -.17062844E+02 E0= -.17062844E+02  d E =0.105718E-04  mag=     0.0000
quench:  g(F)=  0.000E+00 g(S)=  0.000E+00 dE (1.order)= 0.000E+00
 bond charge predicted
       N       E                     dE             d eps       ncg     rms          rms(c)
DAV:   1    -0.170628343868E+02    0.92686E-05   -0.11151E-02    64   0.820E-01    0.218E-02
DAV:   2    -0.170628434038E+02   -0.90170E-05   -0.25047E-04    96   0.111E-01    0.116E-02
DAV:   3    -0.170628434267E+02   -0.22830E-07   -0.36386E-06    80   0.179E-02    0.670E-03
DAV:   4    -0.170628514912E+02   -0.80645E-05   -0.48613E-06    64   0.163E-02    0.172E-03
DAV:   5    -0.170628516621E+02   -0.17092E-06   -0.64716E-07    96   0.645E-03    0.932E-04
DAV:   6    -0.170628518466E+02   -0.18448E-06   -0.44916E-08    64   0.155E-03    0.514E-04
DAV:   7    -0.170628519171E+02   -0.70516E-07   -0.76098E-09    96   0.708E-04    0.248E-04
DAV:   8    -0.170628519606E+02   -0.43473E-07   -0.87556E-09    64   0.657E-04    0.113E-04
DAV:   9    -0.170628520334E+02   -0.72858E-07   -0.20074E-09    64   0.314E-04    0.102E-04
DAV:  10    -0.170628521245E+02   -0.91074E-07   -0.31639E-09    64   0.289E-04    0.824E-05
DAV:  11    -0.170628522026E+02   -0.78071E-07   -0.10693E-09    64   0.140E-04    0.787E-05
DAV:  12    -0.170628522475E+02   -0.44929E-07   -0.23847E-10    80   0.860E-05    0.772E-05
DAV:  13    -0.170628522808E+02   -0.33260E-07   -0.19638E-11    64   0.724E-05    0.768E-05
DAV:  14    -0.170628522974E+02   -0.16641E-07    0.12644E-10    80   0.555E-05    0.766E-05
DAV:  15    -0.170628523055E+02   -0.80577E-08    0.17043E-10    64   0.420E-05
   5 F= -.17062852E+02 E0= -.17062852E+02  d E =-.864818E-05  mag=     0.0000
quench:  g(F)=  0.000E+00 g(S)=  0.000E+00 dE (1.order)= 0.000E+00
 bond charge predicted
       N       E                     dE             d eps       ncg     rms          rms(c)
DAV:   1    -0.170628301354E+02    0.22162E-04   -0.11245E-02    64   0.836E-01    0.220E-02
DAV:   2    -0.170628346430E+02   -0.45076E-05   -0.20999E-04    96   0.105E-01    0.124E-02
DAV:   3    -0.170628326515E+02    0.19915E-05   -0.50180E-06    96   0.207E-02    0.706E-03
DAV:   4    -0.170628365261E+02   -0.38746E-05   -0.54524E-06    96   0.166E-02    0.165E-03
DAV:   5    -0.170628365811E+02   -0.55069E-07   -0.48771E-07    80   0.581E-03    0.108E-03
DAV:   6    -0.170628366686E+02   -0.87479E-07   -0.11755E-07    96   0.209E-03    0.461E-04
DAV:   7    -0.170628367441E+02   -0.75462E-07   -0.20692E-08    80   0.109E-03    0.210E-04
DAV:   8    -0.170628370411E+02   -0.29699E-06   -0.16290E-08    80   0.765E-04    0.190E-04
DAV:   9    -0.170628376272E+02   -0.58610E-06   -0.21121E-08    96   0.602E-04    0.122E-04
DAV:  10    -0.170628381284E+02   -0.50126E-06   -0.11968E-08    96   0.475E-04    0.969E-05
DAV:  11    -0.170628387253E+02   -0.59691E-06   -0.12475E-08    96   0.392E-04    0.831E-05
DAV:  12    -0.170628389604E+02   -0.23504E-06   -0.13405E-09    96   0.162E-04    0.780E-05
DAV:  13    -0.170628391370E+02   -0.17658E-06   -0.67144E-10    80   0.156E-04    0.775E-05
DAV:  14    -0.170628391884E+02   -0.51415E-07    0.38192E-11    64   0.924E-05    0.773E-05
DAV:  15    -0.170628392222E+02   -0.33870E-07    0.14058E-10    48   0.642E-05    0.767E-05
DAV:  16    -0.170628392341E+02   -0.11828E-07    0.23049E-10    64   0.382E-05    0.766E-05
DAV:  17    -0.170628392388E+02   -0.47635E-08    0.25622E-10    64   0.230E-05
   6 F= -.17062839E+02 E0= -.17062839E+02  d E =0.130666E-04  mag=     0.0000
quench:  g(F)=  0.000E+00 g(S)=  0.000E+00 dE (1.order)= 0.000E+00
 bond charge predicted
       N       E                     dE             d eps       ncg     rms          rms(c)
DAV:   1    -0.170628460841E+02   -0.68500E-05   -0.11090E-02    64   0.812E-01    0.184E-02
DAV:   2    -0.170628500287E+02   -0.39446E-05   -0.16445E-04    96   0.951E-02    0.102E-02
DAV:   3    -0.170628516958E+02   -0.16671E-05   -0.34763E-06    96   0.172E-02    0.552E-03
DAV:   4    -0.170628559859E+02   -0.42902E-05   -0.25124E-06    96   0.125E-02    0.119E-03
DAV:   5    -0.170628561444E+02   -0.15846E-06   -0.30212E-07    80   0.432E-03    0.845E-04
DAV:   6    -0.170628561742E+02   -0.29818E-07   -0.33784E-08    80   0.128E-03    0.380E-04
DAV:   7    -0.170628561999E+02   -0.25748E-07   -0.11049E-08    64   0.766E-04    0.144E-04
DAV:   8    -0.170628562929E+02   -0.92948E-07   -0.35848E-09    96   0.410E-04    0.133E-04
DAV:   9    -0.170628564795E+02   -0.18660E-06   -0.47995E-09    96   0.299E-04    0.103E-04
DAV:  10    -0.170628567098E+02   -0.23030E-06   -0.53217E-09    96   0.343E-04    0.953E-05
DAV:  11    -0.170628569236E+02   -0.21386E-06   -0.28100E-09    96   0.213E-04    0.837E-05
DAV:  12    -0.170628570298E+02   -0.10616E-06   -0.46915E-10    80   0.107E-04    0.822E-05
DAV:  13    -0.170628570999E+02   -0.70077E-07   -0.19763E-10    80   0.902E-05    0.818E-05
DAV:  14    -0.170628571308E+02   -0.30866E-07   -0.30607E-11    80   0.773E-05    0.817E-05
DAV:  15    -0.170628571405E+02   -0.97589E-08    0.14030E-10    48   0.475E-05
   7 F= -.17062857E+02 E0= -.17062857E+02  d E =-.179017E-04  mag=    -0.0000
quench:  g(F)=  0.000E+00 g(S)=  0.000E+00 dE (1.order)= 0.000E+00
 bond charge predicted
       N       E                     dE             d eps       ncg     rms          rms(c)
DAV:   1    -0.170628284154E+02    0.28715E-04   -0.66184E-03    64   0.615E-01    0.143E-02
DAV:   2    -0.170628364685E+02   -0.80531E-05   -0.15704E-04    80   0.879E-02    0.105E-02
DAV:   3    -0.170628365147E+02   -0.46227E-07   -0.30975E-06    96   0.169E-02    0.608E-03
DAV:   4    -0.170628384578E+02   -0.19431E-05   -0.11667E-06    96   0.101E-02    0.261E-03
DAV:   5    -0.170628388529E+02   -0.39512E-06   -0.40909E-07    96   0.518E-03    0.757E-04
DAV:   6    -0.170628387589E+02    0.94012E-07   -0.74059E-08    64   0.197E-03    0.451E-04
DAV:   7    -0.170628387706E+02   -0.11656E-07   -0.11037E-08    80   0.932E-04    0.234E-04
DAV:   8    -0.170628390969E+02   -0.32630E-06   -0.13703E-08    64   0.797E-04    0.155E-04
DAV:   9    -0.170628394660E+02   -0.36912E-06   -0.60005E-09    96   0.367E-04    0.116E-04
DAV:  10    -0.170628401090E+02   -0.64302E-06   -0.18176E-08    96   0.493E-04    0.866E-05
DAV:  11    -0.170628403914E+02   -0.28235E-06   -0.39088E-09    96   0.237E-04    0.811E-05
DAV:  12    -0.170628406586E+02   -0.26718E-06   -0.24153E-09    80   0.183E-04    0.776E-05
DAV:  13    -0.170628407947E+02   -0.13615E-06   -0.55834E-10    80   0.121E-04    0.771E-05
DAV:  14    -0.170628408524E+02   -0.57704E-07    0.79226E-12    64   0.843E-05    0.767E-05
DAV:  15    -0.170628408746E+02   -0.22220E-07    0.14653E-10    64   0.568E-05    0.766E-05
DAV:  16    -0.170628408906E+02   -0.15933E-07    0.18697E-10    64   0.450E-05    0.766E-05
DAV:  17    -0.170628408956E+02   -0.50402E-08    0.24166E-10    80   0.265E-05
   8 F= -.17062841E+02 E0= -.17062841E+02  d E =0.162449E-04  mag=    -0.0000
quench:  g(F)=  0.000E+00 g(S)=  0.000E+00 dE (1.order)= 0.000E+00
 bond charge predicted
       N       E                     dE             d eps       ncg     rms          rms(c)
DAV:   1    -0.170628279222E+02    0.12968E-04   -0.23578E-03    64   0.348E-01    0.174E-02
DAV:   2    -0.170628362959E+02   -0.83737E-05   -0.17079E-04    80   0.891E-02    0.159E-02
DAV:   3    -0.170628333768E+02    0.29191E-05   -0.48540E-06    80   0.222E-02    0.975E-03
DAV:   4    -0.170628324796E+02    0.89720E-06   -0.30863E-06    96   0.144E-02    0.300E-03
DAV:   5    -0.170628313271E+02    0.11525E-05   -0.53178E-07    80   0.557E-03    0.110E-03
DAV:   6    -0.170628311026E+02    0.22452E-06   -0.10768E-07    80   0.252E-03    0.384E-04
DAV:   7    -0.170628315626E+02   -0.46001E-06   -0.32231E-08    80   0.137E-03    0.281E-04
DAV:   8    -0.170628329703E+02   -0.14077E-05   -0.47162E-08    80   0.101E-03    0.178E-04
DAV:   9    -0.170628341165E+02   -0.11462E-05   -0.26208E-08    96   0.623E-04    0.133E-04
DAV:  10    -0.170628355787E+02   -0.14622E-05   -0.45101E-08    96   0.727E-04    0.954E-05
DAV:  11    -0.170628361002E+02   -0.52145E-06   -0.54581E-09    96   0.288E-04    0.819E-05
DAV:  12    -0.170628367296E+02   -0.62941E-06   -0.71560E-09    80   0.316E-04    0.779E-05
DAV:  13    -0.170628369331E+02   -0.20356E-06   -0.60864E-10    64   0.140E-04    0.772E-05
DAV:  14    -0.170628370270E+02   -0.93903E-07   -0.30402E-11    64   0.101E-04    0.768E-05
DAV:  15    -0.170628370933E+02   -0.66312E-07    0.53042E-11    48   0.915E-05    0.766E-05
DAV:  16    -0.170628371173E+02   -0.23985E-07    0.20883E-10    64   0.556E-05    0.765E-05
DAV:  17    -0.170628371242E+02   -0.68330E-08    0.23388E-10    80   0.328E-05
   9 F= -.17062837E+02 E0= -.17062837E+02  d E =0.377144E-05  mag=    -0.0000
quench:  g(F)=  0.000E+00 g(S)=  0.000E+00 dE (1.order)= 0.000E+00
 bond charge predicted
       N       E                     dE             d eps       ncg     rms          rms(c)
DAV:   1    -0.170628305505E+02    0.65668E-05   -0.22095E-03    64   0.322E-01    0.160E-02
DAV:   2    -0.170628371823E+02   -0.66318E-05   -0.13181E-04    64   0.779E-02    0.136E-02
DAV:   3    -0.170628357828E+02    0.13995E-05   -0.48185E-06    96   0.216E-02    0.786E-03
DAV:   4    -0.170628348718E+02    0.91101E-06   -0.21571E-06    96   0.119E-02    0.236E-03
DAV:   5    -0.170628339860E+02    0.88581E-06   -0.30293E-07    96   0.414E-03    0.882E-04
DAV:   6    -0.170628337236E+02    0.26243E-06   -0.76010E-08    64   0.184E-03    0.357E-04
DAV:   7    -0.170628340518E+02   -0.32821E-06   -0.21404E-08    80   0.112E-03    0.216E-04
DAV:   8    -0.170628350439E+02   -0.99215E-06   -0.30163E-08    64   0.723E-04    0.159E-04
DAV:   9    -0.170628360121E+02   -0.96818E-06   -0.20508E-08    96   0.531E-04    0.113E-04
DAV:  10    -0.170628370604E+02   -0.10483E-05   -0.31196E-08    96   0.584E-04    0.913E-05
DAV:  11    -0.170628375201E+02   -0.45976E-06   -0.49775E-09    96   0.262E-04    0.798E-05
DAV:  12    -0.170628378774E+02   -0.35727E-06   -0.33244E-09    80   0.219E-04    0.779E-05
DAV:  13    -0.170628380262E+02   -0.14878E-06   -0.39931E-10    80   0.117E-04    0.771E-05
DAV:  14    -0.170628380932E+02   -0.67012E-07    0.37321E-11    64   0.817E-05    0.767E-05
DAV:  15    -0.170628381432E+02   -0.49958E-07    0.10540E-10    48   0.769E-05    0.766E-05
DAV:  16    -0.170628381608E+02   -0.17678E-07    0.20183E-10    64   0.461E-05    0.765E-05
DAV:  17    -0.170628381665E+02   -0.56195E-08    0.23318E-10    80   0.283E-05
  10 F= -.17062838E+02 E0= -.17062838E+02  d E =-.104229E-05  mag=     0.0000
quench:  g(F)=  0.000E+00 g(S)=  0.000E+00 dE (1.order)= 0.000E+00
--------------------------------------------------------
>>>  Job finished at Wed Jun 29 16:30:16 EDT 2022
