 vasp.5.4.4.18Apr17-6-g9f103f2a35 (build Dec 31 2018 11:41:54) complex          
  
 executed on             LinuxIFC date 2022.06.29  16:25:18
 running on   16 total cores
 distrk:  each k-point on   16 cores,    1 groups
 distr:  one band on NCORES_PER_BAND=   4 cores,    4 groups


--------------------------------------------------------------------------------------------------------


 INCAR:
 POTCAR:   PAW_PBE O 08Apr2002                    
 POTCAR:    PAW_PBE S 17Jan2003                   
 POTCAR:   PAW_PBE O 08Apr2002                    
   VRHFIN =O: s2p4                                                              
   LEXCH  = PE                                                                  
   EATOM  =   432.3788 eV,   31.7789 Ry                                         
                                                                                
   TITEL  = PAW_PBE O 08Apr2002                                                 
   LULTRA =        F    use ultrasoft PP ?                                      
   IUNSCR =        0    unscreen: 0-lin 1-nonlin 2-no                           
   RPACOR =     .000    partial core radius                                     
   POMASS =   16.000; ZVAL   =    6.000    mass and valenz                      
   RCORE  =    1.520    outmost cutoff radius                                   
   RWIGS  =    1.550; RWIGS  =     .820    wigner-seitz radius (au A)           
   ENMAX  =  400.000; ENMIN  =  300.000 eV                                      
   ICORE  =        2    local potential                                         
   LCOR   =        T    correct aug charges                                     
   LPAW   =        T    paw PP                                                  
   EAUG   =  605.392                                                            
   DEXC   =     .000                                                            
   RMAX   =    2.264    core radius for proj-oper                               
   RAUG   =    1.300    factor for augmentation sphere                          
   RDEP   =    1.550    radius for radial grids                                 
   QCUT   =   -5.520; QGAM   =   11.041    optimization parameters              
                                                                                
   Description                                                                  
     l     E      TYP  RCUT    TYP  RCUT                                        
     0   .000     23  1.200                                                     
     0  -.700     23  1.200                                                     
     1   .000     23  1.520                                                     
     1   .600     23  1.520                                                     
     2   .000      7  1.500                                                     
  local pseudopotential read in
  atomic valenz-charges read in
  non local Contribution for L=           0  read in
    real space projection operators read in
  non local Contribution for L=           0  read in
    real space projection operators read in
  non local Contribution for L=           1  read in
    real space projection operators read in
  non local Contribution for L=           1  read in
    real space projection operators read in
    PAW grid and wavefunctions read in
 
   number of l-projection  operators is LMAX  =           4
   number of lm-projection operators is LMMAX =           8
 
 POTCAR:    PAW_PBE S 17Jan2003                   
   VRHFIN =S : s2p4                                                             
   LEXCH  = PE                                                                  
   EATOM  =   276.8230 eV,   20.3459 Ry                                         
                                                                                
   TITEL  = PAW_PBE S 17Jan2003                                                 
   LULTRA =        F    use ultrasoft PP ?                                      
   IUNSCR =        1    unscreen: 0-lin 1-nonlin 2-no                           
   RPACOR =    1.500    partial core radius                                     
   POMASS =   32.066; ZVAL   =    6.000    mass and valenz                      
   RCORE  =    1.900    outmost cutoff radius                                   
   RWIGS  =    2.200; RWIGS  =    1.164    wigner-seitz radius (au A)           
   ENMAX  =  280.000; ENMIN  =  194.016 eV                                      
   ICORE  =        2    local potential                                         
   LCOR   =        T    correct aug charges                                     
   LPAW   =        T    paw PP                                                  
   EAUG   =  335.092                                                            
   DEXC   =     .000                                                            
   RMAX   =    2.867    core radius for proj-oper                               
   RAUG   =    1.300    factor for augmentation sphere                          
   RDEP   =    1.954    radius for radial grids                                 
   QCUT   =   -4.360; QGAM   =    8.721    optimization parameters              
                                                                                
   Description                                                                  
     l     E      TYP  RCUT    TYP  RCUT                                        
     0   .000     23  1.900                                                     
     0   .000     23  1.900                                                     
     1   .000     23  1.900                                                     
     1   .000     23  1.900                                                     
     2   .000     23  1.900                                                     
  local pseudopotential read in
  partial core-charges read in
  atomic valenz-charges read in
  non local Contribution for L=           0  read in
    real space projection operators read in
  non local Contribution for L=           0  read in
    real space projection operators read in
  non local Contribution for L=           1  read in
    real space projection operators read in
  non local Contribution for L=           1  read in
    real space projection operators read in
    PAW grid and wavefunctions read in
 
   number of l-projection  operators is LMAX  =           4
   number of lm-projection operators is LMMAX =           8
 

 ----------------------------------------------------------------------------- 
|                                                                             |
|  ADVICE TO THIS USER RUNNING 'VASP/VAMP'   (HEAR YOUR MASTER'S VOICE ...):  |
|                                                                             |
|      You have a (more or less) 'small supercell' and for smaller cells      |
|      it is recommended  to use the reciprocal-space projection scheme!      |
|      The real space optimization is not  efficient for small cells and it   |
|      is also less accurate ...                                              |
|      Therefore set LREAL=.FALSE. in the  INCAR file                         |
|                                                                             |
 ----------------------------------------------------------------------------- 

 Optimization of the real space projectors (new method)

 maximal supplied QI-value         = 24.76
 optimisation between [QCUT,QGAM] = [ 10.15, 20.30] = [ 28.85,115.39] Ry 
 Optimized for a Real-space Cutoff    1.51 Angstroem

   l    n(q)    QCUT    max X(q) W(low)/X(q) W(high)/X(q)  e(spline) 
   0      9    10.150     4.192    0.32E-04    0.13E-04    0.13E-06
   0      9    10.150     8.473    0.18E-03    0.20E-03    0.43E-06
   1      9    10.150     2.474    0.32E-04    0.33E-04    0.64E-07
   1      9    10.150     3.912    0.13E-03    0.16E-03    0.33E-06
 Optimization of the real space projectors (new method)

 maximal supplied QI-value         = 19.84
 optimisation between [QCUT,QGAM] = [ 10.12, 20.44] = [ 28.68,116.96] Ry 
 Optimized for a Real-space Cutoff    1.42 Angstroem

   l    n(q)    QCUT    max X(q) W(low)/X(q) W(high)/X(q)  e(spline) 
   0      9    10.119     5.487    0.15E-04    0.47E-05    0.66E-08
   0      9    10.119    85.627    0.51E-04    0.92E-04    0.63E-07
   1      8    10.119     3.530    0.37E-05    0.76E-05    0.28E-07
   1      8    10.119    42.714    0.16E-03    0.16E-03    0.23E-06
 PAW_PBE O 08Apr2002                    :
 energy of atom  1       EATOM= -432.3788
 kinetic energy error for atom=    0.1156 (will be added to EATOM!!)
  PAW_PBE S 17Jan2003                   :
 energy of atom  2       EATOM= -276.8230
 kinetic energy error for atom=    0.0046 (will be added to EATOM!!)
 
 
 POSCAR: O2                                      
  positions in direct lattice
  velocities in cartesian coordinates
 exchange correlation table for  LEXCH =        8
   RHO(1)=    0.500       N(1)  =     2000
   RHO(2)=  100.500       N(2)  =     4000

 VTST: version 3.2, (02/03/18)

 CHAIN: initializing optimizer
 
 OPT: Using VASP Quick-Min optimizer
 CHAIN: Read ICHAIN            1
 
 POSCAR: O2                                      
  positions in direct lattice
  velocities in cartesian coordinates
 CHAIN: Running the Dynamical Matrix
 


--------------------------------------------------------------------------------------------------------


 ion  position               nearest neighbor table
   1  0.837  0.498  0.682-   3 1.45
   2  0.791  0.638  0.615-   3 1.45
   3  0.796  0.535  0.607-   1 1.45   2 1.45
 
  LATTYP: Found a hexagonal cell.
 ALAT       =    13.6750001907
 C/A-ratio  =     1.0798537472
  
  Lattice vectors:
  
 A1 = (  13.6750001907,   0.0000000000,   0.0000000000)
 A2 = (  -6.8375000954,  11.8428975619,   0.0000000000)
 A3 = (   0.0000000000,   0.0000000000,  14.7670001984)


Analysis of symmetry for initial positions (statically):
=====================================================================
 Subroutine PRICEL returns:
 Original cell was already a primitive cell.
 

 Routine SETGRP: Setting up the symmetry group for a 
 hexagonal supercell.


 Subroutine GETGRP returns: Found  1 space group operations
 (whereof  1 operations were pure point group operations)
 out of a pool of 24 trial point group operations.


The static configuration has the point symmetry C_1 .


Analysis of symmetry for dynamics (positions and initial velocities):
=====================================================================
 Subroutine PRICEL returns:
 Original cell was already a primitive cell.
 

 Routine SETGRP: Setting up the symmetry group for a 
 hexagonal supercell.


 Subroutine GETGRP returns: Found  1 space group operations
 (whereof  1 operations were pure point group operations)
 out of a pool of 24 trial point group operations.


The dynamic configuration has the point symmetry C_1 .


Analysis of structural, dynamic, and magnetic symmetry:
=====================================================================
 Subroutine PRICEL returns:
 Original cell was already a primitive cell.
 

 Routine SETGRP: Setting up the symmetry group for a 
 hexagonal supercell.


 Subroutine GETGRP returns: Found  1 space group operations
 (whereof  1 operations were pure point group operations)
 out of a pool of 24 trial point group operations.


The magnetic configuration has the point symmetry C_1 .


 Subroutine INISYM returns: Found  1 space group operations
 (whereof  1 operations are pure point group operations),
 and found     1 'primitive' translations

 
 
 KPOINTS: Gamma points only                       
  k-points in reciprocal lattice
Space group operators:
 irot       det(A)        alpha          n_x          n_y          n_z        tau_x        tau_y        tau_z
    1     1.000000     0.000000     1.000000     0.000000     0.000000     0.000000     0.000000     0.000000


--------------------------------------------------------------------------------------------------------




 Dimension of arrays:
   k-points           NKPTS =      1   k-points in BZ     NKDIM =      1   number of bands    NBANDS=     16
   number of dos      NEDOS =    301   number of ions     NIONS =      3
   non local maximal  LDIM  =      4   non local SUM 2l+1 LMDIM =      8
   total plane-waves  NPLWV = 777600
   max r-space proj   IRMAX =   4725   max aug-charges    IRDMAX=  82140
   dimension x,y,z NGX =    90 NGY =   90 NGZ =   96
   dimension x,y,z NGXF=   180 NGYF=  180 NGZF=  192
   support grid    NGXF=   360 NGYF=  360 NGZF=  384
   ions per type =               2   1
   NGX,Y,Z   is equivalent  to a cutoff of  10.94, 10.94, 10.81 a.u.
   NGXF,Y,Z  is equivalent  to a cutoff of  21.88, 21.88, 21.62 a.u.

 SYSTEM =  zeolite                                 
 POSCAR =  O2                                      

 Startparameter for this run:
   NWRITE =      2    write-flag & timer
   PREC   = acc       normal or accurate (medium, high low for compatibility)
   ISTART =      0    job   : 0-new  1-cont  2-samecut
   ICHARG =      2    charge: 1-file 2-atom 10-const
   ISPIN  =      2    spin polarized calculation?
   LNONCOLLINEAR =      F non collinear calculations
   LSORBIT =      F    spin-orbit coupling
   INIWAV =      1    electr: 0-lowe 1-rand  2-diag
   LASPH  =      F    aspherical Exc in radial PAW
   METAGGA=      F    non-selfconsistent MetaGGA calc.

 Electronic Relaxation 1
   ENCUT  =  400.0 eV  29.40 Ry    5.42 a.u.  22.30 22.30 24.08*2*pi/ulx,y,z
   ENINI  =  400.0     initial cutoff
   ENAUG  =  605.4 eV  augmentation charge cutoff
   NELM   =    100;   NELMIN=  2; NELMDL= -5     # of ELM steps 
   EDIFF  = 0.1E-07   stopping-criterion for ELM
   LREAL  =      T    real-space projection
   NLSPLINE    = F    spline interpolate recip. space projectors
   LCOMPAT=      F    compatible to vasp.4.4
   GGA_COMPAT  = T    GGA compatible to vasp.4.4-vasp.4.6
   LMAXPAW     = -100 max onsite density
   LMAXMIX     =    2 max onsite mixed and CHGCAR
   VOSKOWN=      0    Vosko Wilk Nusair interpolation
   ROPT   =   -0.00025  -0.00025
 Ionic relaxation
   EDIFFG = -.1E-07   stopping-criterion for IOM
   NSW    =     10    number of steps for IOM
   NBLOCK =      1;   KBLOCK =     10    inner block; outer block 
   IBRION =      3    ionic relax: 0-MD 1-quasi-New 2-CG
   NFREE  =      0    steps in history (QN), initial steepest desc. (CG)
   ISIF   =      2    stress and relaxation
   IWAVPR =     11    prediction:  0-non 1-charg 2-wave 3-comb
   ISYM   =      2    0-nonsym 1-usesym 2-fastsym
   LCORR  =      T    Harris-Foulkes like correction to forces

   POTIM  = 0.0000    time-step for ionic-motion
   TEIN   =    0.0    initial temperature
   TEBEG  =    0.0;   TEEND  =   0.0 temperature during run
   SMASS  =  -3.00    Nose mass-parameter (am)
   estimated Nose-frequenzy (Omega)   =  0.10E-29 period in steps =  0.00 mass=  -0.427E-26a.u.
   SCALEE = 1.0000    scale energy and forces
   NPACO  =    256;   APACO  = 16.0  distance and # of slots for P.C.
   PSTRESS=    0.0 pullay stress

  Mass of Ions in am
   POMASS =  16.00 32.07
  Ionic Valenz
   ZVAL   =   6.00  6.00
  Atomic Wigner-Seitz radii
   RWIGS  =  -1.00 -1.00
  virtual crystal weights 
   VCA    =   1.00  1.00
   NELECT =      18.0000    total number of electrons
   NUPDOWN=      -1.0000    fix difference up-down

 DOS related values:
   EMIN   =  10.00;   EMAX   =-10.00  energy-range for DOS
   EFERMI =   0.00
   ISMEAR =     0;   SIGMA  =   0.05  broadening in eV -4-tet -1-fermi 0-gaus

 Electronic relaxation 2 (details)
   IALGO  =     38    algorithm
   LDIAG  =      T    sub-space diagonalisation (order eigenvalues)
   LSUBROT=      F    optimize rotation matrix (better conditioning)
   TURBO    =      0    0=normal 1=particle mesh
   IRESTART =      0    0=no restart 2=restart with 2 vectors
   NREBOOT  =      0    no. of reboots
   NMIN     =      0    reboot dimension
   EREF     =   0.00    reference energy to select bands
   IMIX   =      4    mixing-type and parameters
     AMIX     =   0.40;   BMIX     =  1.00
     AMIX_MAG =   1.60;   BMIX_MAG =  1.00
     AMIN     =   0.10
     WC   =   100.;   INIMIX=   1;  MIXPRE=   1;  MAXMIX= -45

 Intra band minimization:
   WEIMIN = 0.0010     energy-eigenvalue tresh-hold
   EBREAK =  0.16E-10  absolut break condition
   DEPER  =   0.30     relativ break condition  

   TIME   =   0.40     timestep for ELM

  volume/ion in A,a.u.               =     797.18      5379.64
  Fermi-wavevector in a.u.,A,eV,Ry     =   0.320829  0.606278  1.400462  0.102931
  Thomas-Fermi vector in A             =   1.207787
 
 Write flags
   LWAVE        =      F    write WAVECAR
   LDOWNSAMPLE  =      F    k-point downsampling of WAVECAR
   LCHARG       =      F    write CHGCAR
   LVTOT        =      F    write LOCPOT, total local potential
   LVHAR        =      F    write LOCPOT, Hartree potential only
   LELF         =      F    write electronic localiz. function (ELF)
   LORBIT       =     11    0 simple, 1 ext, 2 COOP (PROOUT), +10 PAW based schemes


 Dipole corrections
   LMONO  =      F    monopole corrections only (constant potential shift)
   LDIPOL =      F    correct potential (dipole corrections)
   IDIPOL =      0    1-x, 2-y, 3-z, 4-all directions 
   EPSILON=  1.0000000 bulk dielectric constant

 Exchange correlation treatment:
   GGA     =    --    GGA type
   LEXCH   =     8    internal setting for exchange type
   VOSKOWN=      0    Vosko Wilk Nusair interpolation
   LHFCALC =     F    Hartree Fock is set to
   LHFONE  =     F    Hartree Fock one center treatment
   AEXX    =    0.0000 exact exchange contribution

 Linear response parameters
   LEPSILON=     F    determine dielectric tensor
   LRPA    =     F    only Hartree local field effects (RPA)
   LNABLA  =     F    use nabla operator in PAW spheres
   LVEL    =     F    velocity operator in full k-point grid
   LINTERFAST=   F  fast interpolation
   KINTER  =     0    interpolate to denser k-point grid
   CSHIFT  =0.1000    complex shift for real part using Kramers Kronig
   OMEGAMAX=  -1.0    maximum frequency
   DEG_THRESHOLD= 0.2000000E-02 threshold for treating states as degnerate
   RTIME   =   -0.100 relaxation time in fs
  (WPLASMAI=    0.000 imaginary part of plasma frequency in eV, 0.658/RTIME)
   DFIELD  = 0.0000000 0.0000000 0.0000000 field for delta impulse in time
 
 Orbital magnetization related:
   ORBITALMAG=     F  switch on orbital magnetization
   LCHIMAG   =     F  perturbation theory with respect to B field
   DQ        =  0.001000  dq finite difference perturbation B field
   LLRAUG    =     F  two centre corrections for induced B field



--------------------------------------------------------------------------------------------------------


 quickmin algorithm: (dynamic with friction)
 charge density and potential will be updated during run
 spin polarized calculation
 Variant of blocked Davidson
 Davidson routine will perform the subspace rotation
 perform sub-space diagonalisation
    after iterative eigenvector-optimisation
 modified Broyden-mixing scheme, WC =      100.0
 initial mixing is a Kerker type mixing with AMIX =  0.4000 and BMIX =      1.0000
 Hartree-type preconditioning will be used
 using additional bands            7
 real space projection scheme for non local part
 use partial core corrections
 calculate Harris-corrections to forces 
   (improved forces if not selfconsistent)
 use gradient corrections 
 use of overlap-Matrix (Vanderbilt PP)
 Gauss-broadening in eV      SIGMA  =   0.05


--------------------------------------------------------------------------------------------------------


  energy-cutoff  :      400.00
  volume of cell :     2391.54
      direct lattice vectors                 reciprocal lattice vectors
    13.675000191  0.000000000  0.000000000     0.073126142  0.042219398  0.000000000
    -6.837500095 11.842897562  0.000000000     0.000000000  0.084438795  0.000000000
     0.000000000  0.000000000 14.767000198     0.000000000  0.000000000  0.067718561

  length of vectors
    13.675000191 13.675000191 14.767000198     0.084438795  0.084438795  0.067718561


 
 k-points in units of 2pi/SCALE and weight: Gamma points only                       
   0.00000000  0.00000000  0.00000000       1.000
 
 k-points in reciprocal lattice and weights: Gamma points only                       
   0.00000000  0.00000000  0.00000000       1.000
 
 position of ions in fractional coordinates (direct lattice) 
   0.83739149  0.49803018  0.68240077
   0.79124890  0.63759553  0.61498399
   0.79635647  0.53476406  0.60682182
 
 position of ions in cartesian coordinates  (Angst):
   8.04604733  5.89812039 10.07701225
   6.46076940  7.55097856  9.08146874
   7.23372549  6.33315600  8.96093786
 


--------------------------------------------------------------------------------------------------------


 k-point  1 :   0.0000 0.0000 0.0000  plane waves:   43405

 maximum and minimum number of plane-waves per node :     10852    10850

 maximum number of plane-waves:     43405
 maximum index in each direction: 
   IXMAX=   22   IYMAX=   22   IZMAX=   24
   IXMIN=  -22   IYMIN=  -22   IZMIN=  -24


 real space projection operators:
  total allocation   :        803.94 KBytes
  max/ min on nodes  :        202.06        200.06


 parallel 3D FFT for wavefunctions:
    minimum data exchange during FFTs selected (reduces bandwidth)
 parallel 3D FFT for charge:
    minimum data exchange during FFTs selected (reduces bandwidth)


 total amount of memory used by VASP MPI-rank0   145291. kBytes
=======================================================================

   base      :      30000. kBytes
   nonlr-proj:        484. kBytes
   fftplans  :      63994. kBytes
   grid      :      49417. kBytes
   one-center:          6. kBytes
   wavefun   :       1390. kBytes
 
     INWAV:  cpu time    0.0000: real time    0.0002
 Broyden mixing: mesh for mixing (old mesh)
   NGX = 45   NGY = 45   NGZ = 49
  (NGX  =180   NGY  =180   NGZ  =192)
  gives a total of  99225 points

 initial charge density was supplied:
 charge density of overlapping atoms calculated
 number of electron      18.0000000 magnetization       3.0000000
 keeping initial charge density in first step


--------------------------------------------------------------------------------------------------------


 Maximum index for non-local projection operator         1128
 Maximum index for augmentation-charges         4862 (set IRDMAX)


--------------------------------------------------------------------------------------------------------


 First call to EWALD:  gamma=   0.133
 Maximum number of real-space cells 3x 3x 3
 Maximum number of reciprocal cells 3x 3x 3

    FEWALD:  cpu time    0.0013: real time    0.0013


--------------------------------------- Iteration      1(   1)  ---------------------------------------


    POTLOK:  cpu time    0.5195: real time    0.5436
    SETDIJ:  cpu time    0.2480: real time    0.2486
     EDDAV:  cpu time    0.4348: real time    0.4360
       DOS:  cpu time    0.0003: real time    0.0003
    --------------------------------------------
      LOOP:  cpu time    1.2025: real time    1.2284

 eigenvalue-minimisations  :    96
 total energy-change (2. order) : 0.1319095E+03  (-0.3977568E+03)
 number of electron      18.0000000 magnetization       3.0000000
 augmentation part       18.0000000 magnetization       3.0000000

 Free energy of the ion-electron system (eV)
  ---------------------------------------------------
  alpha Z        PSCENC =         0.53791023
  Ewald energy   TEWEN  =       433.76857425
  -Hartree energ DENC   =     -1365.36464570
  -exchange      EXHF   =         0.00000000
  -V(xc)+E(xc)   XCENC  =        67.78456609
  PAW double counting   =       590.90175278     -591.39117139
  entropy T*S    EENTRO =        -0.02623690
  eigenvalues    EBANDS =      -145.64602069
  atomic energy  EATOM  =      1141.34479484
  Solvation  Ediel_sol  =         0.00000000
  ---------------------------------------------------
  free energy    TOTEN  =       131.90952352 eV

  energy without entropy =      131.93576041  energy(sigma->0) =      131.92264196


--------------------------------------------------------------------------------------------------------




--------------------------------------- Iteration      1(   2)  ---------------------------------------


     EDDAV:  cpu time    0.5195: real time    0.5307
       DOS:  cpu time    0.0001: real time    0.0001
    --------------------------------------------
      LOOP:  cpu time    0.5196: real time    0.5308

 eigenvalue-minimisations  :   120
 total energy-change (2. order) :-0.1137114E+03  (-0.1118278E+03)
 number of electron      18.0000000 magnetization       3.0000000
 augmentation part       18.0000000 magnetization       3.0000000

 Free energy of the ion-electron system (eV)
  ---------------------------------------------------
  alpha Z        PSCENC =         0.53791023
  Ewald energy   TEWEN  =       433.76857425
  -Hartree energ DENC   =     -1365.36464570
  -exchange      EXHF   =         0.00000000
  -V(xc)+E(xc)   XCENC  =        67.78456609
  PAW double counting   =       590.90175278     -591.39117139
  entropy T*S    EENTRO =        -0.00000000
  eigenvalues    EBANDS =      -259.38364945
  atomic energy  EATOM  =      1141.34479484
  Solvation  Ediel_sol  =         0.00000000
  ---------------------------------------------------
  free energy    TOTEN  =        18.19813166 eV

  energy without entropy =       18.19813166  energy(sigma->0) =       18.19813166


--------------------------------------------------------------------------------------------------------




--------------------------------------- Iteration      1(   3)  ---------------------------------------


     EDDAV:  cpu time    0.4018: real time    0.4028
       DOS:  cpu time    0.0001: real time    0.0001
    --------------------------------------------
      LOOP:  cpu time    0.4019: real time    0.4029

 eigenvalue-minimisations  :    88
 total energy-change (2. order) :-0.3412527E+02  (-0.3395709E+02)
 number of electron      18.0000000 magnetization       3.0000000
 augmentation part       18.0000000 magnetization       3.0000000

 Free energy of the ion-electron system (eV)
  ---------------------------------------------------
  alpha Z        PSCENC =         0.53791023
  Ewald energy   TEWEN  =       433.76857425
  -Hartree energ DENC   =     -1365.36464570
  -exchange      EXHF   =         0.00000000
  -V(xc)+E(xc)   XCENC  =        67.78456609
  PAW double counting   =       590.90175278     -591.39117139
  entropy T*S    EENTRO =        -0.00000000
  eigenvalues    EBANDS =      -293.50892371
  atomic energy  EATOM  =      1141.34479484
  Solvation  Ediel_sol  =         0.00000000
  ---------------------------------------------------
  free energy    TOTEN  =       -15.92714261 eV

  energy without entropy =      -15.92714261  energy(sigma->0) =      -15.92714261


--------------------------------------------------------------------------------------------------------




--------------------------------------- Iteration      1(   4)  ---------------------------------------


     EDDAV:  cpu time    0.3144: real time    0.3154
       DOS:  cpu time    0.0001: real time    0.0001
    --------------------------------------------
      LOOP:  cpu time    0.3146: real time    0.3155

 eigenvalue-minimisations  :    64
 total energy-change (2. order) :-0.2911590E+01  (-0.2904911E+01)
 number of electron      18.0000000 magnetization       3.0000000
 augmentation part       18.0000000 magnetization       3.0000000

 Free energy of the ion-electron system (eV)
  ---------------------------------------------------
  alpha Z        PSCENC =         0.53791023
  Ewald energy   TEWEN  =       433.76857425
  -Hartree energ DENC   =     -1365.36464570
  -exchange      EXHF   =         0.00000000
  -V(xc)+E(xc)   XCENC  =        67.78456609
  PAW double counting   =       590.90175278     -591.39117139
  entropy T*S    EENTRO =        -0.00000000
  eigenvalues    EBANDS =      -296.42051376
  atomic energy  EATOM  =      1141.34479484
  Solvation  Ediel_sol  =         0.00000000
  ---------------------------------------------------
  free energy    TOTEN  =       -18.83873266 eV

  energy without entropy =      -18.83873266  energy(sigma->0) =      -18.83873266


--------------------------------------------------------------------------------------------------------




--------------------------------------- Iteration      1(   5)  ---------------------------------------


     EDDAV:  cpu time    0.4737: real time    0.4750
       DOS:  cpu time    0.0002: real time    0.0002
    CHARGE:  cpu time    0.2871: real time    0.2878
    MIXING:  cpu time    0.0110: real time    0.0111
    --------------------------------------------
      LOOP:  cpu time    0.7719: real time    0.7741

 eigenvalue-minimisations  :   104
 total energy-change (2. order) :-0.4172585E-01  (-0.4169101E-01)
 number of electron      18.0000000 magnetization       2.2642137
 augmentation part        0.7348485 magnetization       2.3018850

 Broyden mixing:
  rms(total) = 0.13718E+01    rms(broyden)= 0.13710E+01
  rms(prec ) = 0.15126E+01
  weight for this iteration     100.00

 Free energy of the ion-electron system (eV)
  ---------------------------------------------------
  alpha Z        PSCENC =         0.53791023
  Ewald energy   TEWEN  =       433.76857425
  -Hartree energ DENC   =     -1365.36464570
  -exchange      EXHF   =         0.00000000
  -V(xc)+E(xc)   XCENC  =        67.78456609
  PAW double counting   =       590.90175278     -591.39117139
  entropy T*S    EENTRO =        -0.00000000
  eigenvalues    EBANDS =      -296.46223961
  atomic energy  EATOM  =      1141.34479484
  Solvation  Ediel_sol  =         0.00000000
  ---------------------------------------------------
  free energy    TOTEN  =       -18.88045851 eV

  energy without entropy =      -18.88045851  energy(sigma->0) =      -18.88045851


--------------------------------------------------------------------------------------------------------




--------------------------------------- Iteration      1(   6)  ---------------------------------------


    POTLOK:  cpu time    0.5062: real time    0.5088
    SETDIJ:  cpu time    0.2461: real time    0.2467
     EDDAV:  cpu time    0.3421: real time    0.3430
       DOS:  cpu time    0.0001: real time    0.0001
    CHARGE:  cpu time    0.2818: real time    0.2825
    MIXING:  cpu time    0.0111: real time    0.0111
    --------------------------------------------
      LOOP:  cpu time    1.3874: real time    1.3922

 eigenvalue-minimisations  :    72
 total energy-change (2. order) : 0.1026496E+02  (-0.1826715E+01)
 number of electron      18.0000000 magnetization       1.7473341
 augmentation part        0.4047409 magnetization       1.7035086

 Broyden mixing:
  rms(total) = 0.40766E+00    rms(broyden)= 0.40667E+00
  rms(prec ) = 0.42688E+00
  weight for this iteration     100.00

 eigenvalues of (default mixing * dielectric matrix)
  average eigenvalue GAMMA=   0.9243
  0.9243

 Free energy of the ion-electron system (eV)
  ---------------------------------------------------
  alpha Z        PSCENC =         0.53791023
  Ewald energy   TEWEN  =       433.76857425
  -Hartree energ DENC   =     -1394.53314986
  -exchange      EXHF   =         0.00000000
  -V(xc)+E(xc)   XCENC  =        75.98403292
  PAW double counting   =       674.99248582     -675.83729230
  entropy T*S    EENTRO =        -0.00000000
  eigenvalues    EBANDS =      -264.87285873
  atomic energy  EATOM  =      1141.34479484
  Solvation  Ediel_sol  =         0.00000000
  ---------------------------------------------------
  free energy    TOTEN  =        -8.61550283 eV

  energy without entropy =       -8.61550283  energy(sigma->0) =       -8.61550283


--------------------------------------------------------------------------------------------------------




--------------------------------------- Iteration      1(   7)  ---------------------------------------


    POTLOK:  cpu time    0.5036: real time    0.5050
    SETDIJ:  cpu time    0.2466: real time    0.2472
     EDDAV:  cpu time    0.4018: real time    0.4027
       DOS:  cpu time    0.0001: real time    0.0001
    CHARGE:  cpu time    0.2837: real time    0.2844
    MIXING:  cpu time    0.0113: real time    0.0114
    --------------------------------------------
      LOOP:  cpu time    1.4471: real time    1.4508

 eigenvalue-minimisations  :    88
 total energy-change (2. order) :-0.4288919E+01  (-0.3632563E+00)
 number of electron      18.0000000 magnetization       1.1150747
 augmentation part        0.3675985 magnetization       1.0839975

 Broyden mixing:
  rms(total) = 0.26466E+00    rms(broyden)= 0.26464E+00
  rms(prec ) = 0.28120E+00
  weight for this iteration     100.00

 eigenvalues of (default mixing * dielectric matrix)
  average eigenvalue GAMMA=   1.0568
  1.0568  1.0568

 Free energy of the ion-electron system (eV)
  ---------------------------------------------------
  alpha Z        PSCENC =         0.53791023
  Ewald energy   TEWEN  =       433.76857425
  -Hartree energ DENC   =     -1396.77836833
  -exchange      EXHF   =         0.00000000
  -V(xc)+E(xc)   XCENC  =        72.92038873
  PAW double counting   =       692.76045629     -693.48027785
  entropy T*S    EENTRO =        -0.00000000
  eigenvalues    EBANDS =      -263.97789977
  atomic energy  EATOM  =      1141.34479484
  Solvation  Ediel_sol  =         0.00000000
  ---------------------------------------------------
  free energy    TOTEN  =       -12.90442161 eV

  energy without entropy =      -12.90442161  energy(sigma->0) =      -12.90442161


--------------------------------------------------------------------------------------------------------




--------------------------------------- Iteration      1(   8)  ---------------------------------------


    POTLOK:  cpu time    0.5083: real time    0.5097
    SETDIJ:  cpu time    0.2472: real time    0.2478
     EDDAV:  cpu time    0.3678: real time    0.3687
       DOS:  cpu time    0.0001: real time    0.0001
    CHARGE:  cpu time    0.2735: real time    0.2742
    MIXING:  cpu time    0.0112: real time    0.0113
    --------------------------------------------
      LOOP:  cpu time    1.4081: real time    1.4117

 eigenvalue-minimisations  :    80
 total energy-change (2. order) :-0.2305645E+01  (-0.1084770E+00)
 number of electron      18.0000000 magnetization       0.6961931
 augmentation part        0.4115346 magnetization       0.6840117

 Broyden mixing:
  rms(total) = 0.10449E+00    rms(broyden)= 0.10439E+00
  rms(prec ) = 0.11727E+00
  weight for this iteration     100.00

 eigenvalues of (default mixing * dielectric matrix)
  average eigenvalue GAMMA=   1.2038
  1.8780  1.0244  0.7089

 Free energy of the ion-electron system (eV)
  ---------------------------------------------------
  alpha Z        PSCENC =         0.53791023
  Ewald energy   TEWEN  =       433.76857425
  -Hartree energ DENC   =     -1396.53374372
  -exchange      EXHF   =         0.00000000
  -V(xc)+E(xc)   XCENC  =        70.90813764
  PAW double counting   =       705.28057271     -705.90556386
  entropy T*S    EENTRO =        -0.00000000
  eigenvalues    EBANDS =      -264.61074835
  atomic energy  EATOM  =      1141.34479484
  Solvation  Ediel_sol  =         0.00000000
  ---------------------------------------------------
  free energy    TOTEN  =       -15.21006626 eV

  energy without entropy =      -15.21006626  energy(sigma->0) =      -15.21006626


--------------------------------------------------------------------------------------------------------




--------------------------------------- Iteration      1(   9)  ---------------------------------------


    POTLOK:  cpu time    0.4751: real time    0.4764
    SETDIJ:  cpu time    0.2405: real time    0.2411
     EDDAV:  cpu time    0.3856: real time    0.3866
       DOS:  cpu time    0.0001: real time    0.0001
    CHARGE:  cpu time    0.2743: real time    0.2750
    MIXING:  cpu time    0.0110: real time    0.0111
    --------------------------------------------
      LOOP:  cpu time    1.3868: real time    1.3903

 eigenvalue-minimisations  :    88
 total energy-change (2. order) :-0.6993966E+00  (-0.2636673E-01)
 number of electron      18.0000000 magnetization       0.4768637
 augmentation part        0.4029384 magnetization       0.4716413

 Broyden mixing:
  rms(total) = 0.42268E-01    rms(broyden)= 0.42239E-01
  rms(prec ) = 0.52015E-01
  weight for this iteration     100.00

 eigenvalues of (default mixing * dielectric matrix)
  average eigenvalue GAMMA=   1.2139
  2.1664  0.9881  0.9881  0.7128

 Free energy of the ion-electron system (eV)
  ---------------------------------------------------
  alpha Z        PSCENC =         0.53791023
  Ewald energy   TEWEN  =       433.76857425
  -Hartree energ DENC   =     -1398.06593690
  -exchange      EXHF   =         0.00000000
  -V(xc)+E(xc)   XCENC  =        70.41629988
  PAW double counting   =       715.28214375     -715.89051041
  entropy T*S    EENTRO =        -0.00000000
  eigenvalues    EBANDS =      -263.30273853
  atomic energy  EATOM  =      1141.34479484
  Solvation  Ediel_sol  =         0.00000000
  ---------------------------------------------------
  free energy    TOTEN  =       -15.90946289 eV

  energy without entropy =      -15.90946289  energy(sigma->0) =      -15.90946289


--------------------------------------------------------------------------------------------------------




--------------------------------------- Iteration      1(  10)  ---------------------------------------


    POTLOK:  cpu time    0.4778: real time    0.4792
    SETDIJ:  cpu time    0.2411: real time    0.2417
     EDDAV:  cpu time    0.4420: real time    0.4431
       DOS:  cpu time    0.0001: real time    0.0001
    CHARGE:  cpu time    0.2739: real time    0.2746
    MIXING:  cpu time    0.0115: real time    0.0116
    --------------------------------------------
      LOOP:  cpu time    1.4465: real time    1.4503

 eigenvalue-minimisations  :   104
 total energy-change (2. order) :-0.3460554E+00  (-0.4015449E-02)
 number of electron      18.0000000 magnetization       0.2892800
 augmentation part        0.3905966 magnetization       0.2869083

 Broyden mixing:
  rms(total) = 0.25552E-01    rms(broyden)= 0.25535E-01
  rms(prec ) = 0.30810E-01
  weight for this iteration     100.00

 eigenvalues of (default mixing * dielectric matrix)
  average eigenvalue GAMMA=   1.2191
  2.3581  1.2021  0.9251  0.9251  0.6851

 Free energy of the ion-electron system (eV)
  ---------------------------------------------------
  alpha Z        PSCENC =         0.53791023
  Ewald energy   TEWEN  =       433.76857425
  -Hartree energ DENC   =     -1397.89064221
  -exchange      EXHF   =         0.00000000
  -V(xc)+E(xc)   XCENC  =        70.09230683
  PAW double counting   =       716.70239954     -717.29048300
  entropy T*S    EENTRO =        -0.00000000
  eigenvalues    EBANDS =      -263.52037882
  atomic energy  EATOM  =      1141.34479484
  Solvation  Ediel_sol  =         0.00000000
  ---------------------------------------------------
  free energy    TOTEN  =       -16.25551833 eV

  energy without entropy =      -16.25551833  energy(sigma->0) =      -16.25551833


--------------------------------------------------------------------------------------------------------




--------------------------------------- Iteration      1(  11)  ---------------------------------------


    POTLOK:  cpu time    0.4827: real time    0.4841
    SETDIJ:  cpu time    0.2424: real time    0.2430
     EDDAV:  cpu time    0.3386: real time    0.3394
       DOS:  cpu time    0.0001: real time    0.0001
    CHARGE:  cpu time    0.2771: real time    0.2777
    MIXING:  cpu time    0.0123: real time    0.0123
    --------------------------------------------
      LOOP:  cpu time    1.3531: real time    1.3566

 eigenvalue-minimisations  :    72
 total energy-change (2. order) :-0.4794508E+00  (-0.2181860E-02)
 number of electron      18.0000000 magnetization       0.1556319
 augmentation part        0.3917456 magnetization       0.1539833

 Broyden mixing:
  rms(total) = 0.13528E-01    rms(broyden)= 0.13526E-01
  rms(prec ) = 0.17936E-01
  weight for this iteration     100.00

 eigenvalues of (default mixing * dielectric matrix)
  average eigenvalue GAMMA=   1.2640
  2.4838  1.5998  1.0029  1.0029  0.8362  0.6587

 Free energy of the ion-electron system (eV)
  ---------------------------------------------------
  alpha Z        PSCENC =         0.53791023
  Ewald energy   TEWEN  =       433.76857425
  -Hartree energ DENC   =     -1396.86115900
  -exchange      EXHF   =         0.00000000
  -V(xc)+E(xc)   XCENC  =        69.57436855
  PAW double counting   =       715.37920821     -715.94441164
  entropy T*S    EENTRO =        -0.00000000
  eigenvalues    EBANDS =      -264.53425461
  atomic energy  EATOM  =      1141.34479484
  Solvation  Ediel_sol  =         0.00000000
  ---------------------------------------------------
  free energy    TOTEN  =       -16.73496917 eV

  energy without entropy =      -16.73496917  energy(sigma->0) =      -16.73496917


--------------------------------------------------------------------------------------------------------




--------------------------------------- Iteration      1(  12)  ---------------------------------------


    POTLOK:  cpu time    0.4816: real time    0.4832
    SETDIJ:  cpu time    0.2414: real time    0.2420
     EDDAV:  cpu time    0.3853: real time    0.3863
       DOS:  cpu time    0.0001: real time    0.0001
    CHARGE:  cpu time    0.2737: real time    0.2744
    MIXING:  cpu time    0.0131: real time    0.0132
    --------------------------------------------
      LOOP:  cpu time    1.3953: real time    1.3992

 eigenvalue-minimisations  :    88
 total energy-change (2. order) :-0.1728673E+00  (-0.5419620E-03)
 number of electron      18.0000000 magnetization       0.0700814
 augmentation part        0.3911441 magnetization       0.0692627

 Broyden mixing:
  rms(total) = 0.81224E-02    rms(broyden)= 0.81210E-02
  rms(prec ) = 0.11876E-01
  weight for this iteration     100.00

 eigenvalues of (default mixing * dielectric matrix)
  average eigenvalue GAMMA=   1.2656
  2.6132  2.0581  0.9413  0.9413  0.9045  0.7615  0.6396

 Free energy of the ion-electron system (eV)
  ---------------------------------------------------
  alpha Z        PSCENC =         0.53791023
  Ewald energy   TEWEN  =       433.76857425
  -Hartree energ DENC   =     -1396.44059601
  -exchange      EXHF   =         0.00000000
  -V(xc)+E(xc)   XCENC  =        69.38649512
  PAW double counting   =       714.93867338     -715.49709668
  entropy T*S    EENTRO =        -0.00000000
  eigenvalues    EBANDS =      -264.94659165
  atomic energy  EATOM  =      1141.34479484
  Solvation  Ediel_sol  =         0.00000000
  ---------------------------------------------------
  free energy    TOTEN  =       -16.90783651 eV

  energy without entropy =      -16.90783651  energy(sigma->0) =      -16.90783651


--------------------------------------------------------------------------------------------------------




--------------------------------------- Iteration      1(  13)  ---------------------------------------


    POTLOK:  cpu time    0.4743: real time    0.4757
    SETDIJ:  cpu time    0.2410: real time    0.2416
     EDDAV:  cpu time    0.3570: real time    0.3579
       DOS:  cpu time    0.0001: real time    0.0001
    CHARGE:  cpu time    0.2742: real time    0.2749
    MIXING:  cpu time    0.0128: real time    0.0128
    --------------------------------------------
      LOOP:  cpu time    1.3593: real time    1.3629

 eigenvalue-minimisations  :    80
 total energy-change (2. order) :-0.1093865E+00  (-0.1957121E-03)
 number of electron      18.0000000 magnetization      -0.0116810
 augmentation part        0.3900288 magnetization      -0.0122188

 Broyden mixing:
  rms(total) = 0.43424E-02    rms(broyden)= 0.43413E-02
  rms(prec ) = 0.78563E-02
  weight for this iteration     100.00

 eigenvalues of (default mixing * dielectric matrix)
  average eigenvalue GAMMA=   1.4280
  3.4975  2.3193  1.2883  1.0928  0.9443  0.9443  0.7015  0.6360

 Free energy of the ion-electron system (eV)
  ---------------------------------------------------
  alpha Z        PSCENC =         0.53791023
  Ewald energy   TEWEN  =       433.76857425
  -Hartree energ DENC   =     -1396.22076083
  -exchange      EXHF   =         0.00000000
  -V(xc)+E(xc)   XCENC  =        69.26900888
  PAW double counting   =       714.71152502     -715.26850987
  entropy T*S    EENTRO =        -0.00000000
  eigenvalues    EBANDS =      -265.15976549
  atomic energy  EATOM  =      1141.34479484
  Solvation  Ediel_sol  =         0.00000000
  ---------------------------------------------------
  free energy    TOTEN  =       -17.01722297 eV

  energy without entropy =      -17.01722297  energy(sigma->0) =      -17.01722297


--------------------------------------------------------------------------------------------------------




--------------------------------------- Iteration      1(  14)  ---------------------------------------


    POTLOK:  cpu time    0.4726: real time    0.4739
    SETDIJ:  cpu time    0.2409: real time    0.2415
     EDDAV:  cpu time    0.4480: real time    0.4491
       DOS:  cpu time    0.0001: real time    0.0001
    CHARGE:  cpu time    0.2738: real time    0.2745
    MIXING:  cpu time    0.0138: real time    0.0138
    --------------------------------------------
      LOOP:  cpu time    1.4492: real time    1.4529

 eigenvalue-minimisations  :   104
 total energy-change (2. order) :-0.3628263E-01  (-0.1926363E-03)
 number of electron      18.0000000 magnetization      -0.0197364
 augmentation part        0.3898804 magnetization      -0.0197004

 Broyden mixing:
  rms(total) = 0.25383E-02    rms(broyden)= 0.25369E-02
  rms(prec ) = 0.48588E-02
  weight for this iteration     100.00

 eigenvalues of (default mixing * dielectric matrix)
  average eigenvalue GAMMA=   1.4099
  3.6929  2.3383  1.6051  0.9985  0.9985  0.8640  0.8640  0.6309  0.6973

 Free energy of the ion-electron system (eV)
  ---------------------------------------------------
  alpha Z        PSCENC =         0.53791023
  Ewald energy   TEWEN  =       433.76857425
  -Hartree energ DENC   =     -1396.06252313
  -exchange      EXHF   =         0.00000000
  -V(xc)+E(xc)   XCENC  =        69.22569129
  PAW double counting   =       714.66920089     -715.22751966
  entropy T*S    EENTRO =        -0.00000000
  eigenvalues    EBANDS =      -265.30963431
  atomic energy  EATOM  =      1141.34479484
  Solvation  Ediel_sol  =         0.00000000
  ---------------------------------------------------
  free energy    TOTEN  =       -17.05350561 eV

  energy without entropy =      -17.05350561  energy(sigma->0) =      -17.05350561


--------------------------------------------------------------------------------------------------------




--------------------------------------- Iteration      1(  15)  ---------------------------------------


    POTLOK:  cpu time    0.4744: real time    0.4758
    SETDIJ:  cpu time    0.2410: real time    0.2416
     EDDAV:  cpu time    0.3318: real time    0.3326
       DOS:  cpu time    0.0001: real time    0.0001
    CHARGE:  cpu time    0.2753: real time    0.2760
    MIXING:  cpu time    0.0130: real time    0.0130
    --------------------------------------------
      LOOP:  cpu time    1.3357: real time    1.3391

 eigenvalue-minimisations  :    72
 total energy-change (2. order) :-0.4017457E-02  (-0.1433054E-04)
 number of electron      18.0000000 magnetization      -0.0193382
 augmentation part        0.3903104 magnetization      -0.0191981

 Broyden mixing:
  rms(total) = 0.15741E-02    rms(broyden)= 0.15736E-02
  rms(prec ) = 0.34199E-02
  weight for this iteration     100.00

 eigenvalues of (default mixing * dielectric matrix)
  average eigenvalue GAMMA=   1.4442
  3.8547  2.4116  2.0156  1.1891  0.9357  0.9357  1.0319  0.7620  0.6789  0.6265

 Free energy of the ion-electron system (eV)
  ---------------------------------------------------
  alpha Z        PSCENC =         0.53791023
  Ewald energy   TEWEN  =       433.76857425
  -Hartree energ DENC   =     -1396.04340279
  -exchange      EXHF   =         0.00000000
  -V(xc)+E(xc)   XCENC  =        69.22067791
  PAW double counting   =       714.75683894     -715.31664143
  entropy T*S    EENTRO =        -0.00000000
  eigenvalues    EBANDS =      -265.32627502
  atomic energy  EATOM  =      1141.34479484
  Solvation  Ediel_sol  =         0.00000000
  ---------------------------------------------------
  free energy    TOTEN  =       -17.05752306 eV

  energy without entropy =      -17.05752306  energy(sigma->0) =      -17.05752306


--------------------------------------------------------------------------------------------------------




--------------------------------------- Iteration      1(  16)  ---------------------------------------


    POTLOK:  cpu time    0.4792: real time    0.4909
    SETDIJ:  cpu time    0.2412: real time    0.2418
     EDDAV:  cpu time    0.3020: real time    0.3028
       DOS:  cpu time    0.0001: real time    0.0001
    CHARGE:  cpu time    0.2741: real time    0.2748
    MIXING:  cpu time    0.0140: real time    0.0140
    --------------------------------------------
      LOOP:  cpu time    1.3106: real time    1.3243

 eigenvalue-minimisations  :    64
 total energy-change (2. order) :-0.8270570E-04  (-0.2117139E-04)
 number of electron      18.0000000 magnetization      -0.0136636
 augmentation part        0.3905735 magnetization      -0.0135077

 Broyden mixing:
  rms(total) = 0.12584E-02    rms(broyden)= 0.12582E-02
  rms(prec ) = 0.21825E-02
  weight for this iteration     100.00

 eigenvalues of (default mixing * dielectric matrix)
  average eigenvalue GAMMA=   1.4989
  4.1826  2.7240  2.1678  1.5108  1.0383  1.0383  0.9004  0.9004  0.7293  0.6715
  0.6247

 Free energy of the ion-electron system (eV)
  ---------------------------------------------------
  alpha Z        PSCENC =         0.53791023
  Ewald energy   TEWEN  =       433.76857425
  -Hartree energ DENC   =     -1396.01069657
  -exchange      EXHF   =         0.00000000
  -V(xc)+E(xc)   XCENC  =        69.21979914
  PAW double counting   =       714.80216732     -715.36302181
  entropy T*S    EENTRO =        -0.00000000
  eigenvalues    EBANDS =      -265.35713317
  atomic energy  EATOM  =      1141.34479484
  Solvation  Ediel_sol  =         0.00000000
  ---------------------------------------------------
  free energy    TOTEN  =       -17.05760577 eV

  energy without entropy =      -17.05760577  energy(sigma->0) =      -17.05760577


--------------------------------------------------------------------------------------------------------




--------------------------------------- Iteration      1(  17)  ---------------------------------------


    POTLOK:  cpu time    0.4758: real time    0.4771
    SETDIJ:  cpu time    0.2407: real time    0.2413
     EDDAV:  cpu time    0.3298: real time    0.3306
       DOS:  cpu time    0.0001: real time    0.0001
    CHARGE:  cpu time    0.2743: real time    0.2750
    MIXING:  cpu time    0.0147: real time    0.0147
    --------------------------------------------
      LOOP:  cpu time    1.3355: real time    1.3389

 eigenvalue-minimisations  :    72
 total energy-change (2. order) :-0.1171448E-02  (-0.1394976E-04)
 number of electron      18.0000000 magnetization      -0.0068763
 augmentation part        0.3904441 magnetization      -0.0067957

 Broyden mixing:
  rms(total) = 0.90980E-03    rms(broyden)= 0.90967E-03
  rms(prec ) = 0.13307E-02
  weight for this iteration     100.00

 eigenvalues of (default mixing * dielectric matrix)
  average eigenvalue GAMMA=   1.5296
  4.5696  3.0314  2.2185  1.7240  1.1606  0.9139  0.9139  1.0026  0.8160  0.7193
  0.6628  0.6224

 Free energy of the ion-electron system (eV)
  ---------------------------------------------------
  alpha Z        PSCENC =         0.53791023
  Ewald energy   TEWEN  =       433.76857425
  -Hartree energ DENC   =     -1395.98356832
  -exchange      EXHF   =         0.00000000
  -V(xc)+E(xc)   XCENC  =        69.21830066
  PAW double counting   =       714.76820996     -715.32868326
  entropy T*S    EENTRO =        -0.00000000
  eigenvalues    EBANDS =      -265.38431558
  atomic energy  EATOM  =      1141.34479484
  Solvation  Ediel_sol  =         0.00000000
  ---------------------------------------------------
  free energy    TOTEN  =       -17.05877722 eV

  energy without entropy =      -17.05877722  energy(sigma->0) =      -17.05877722


--------------------------------------------------------------------------------------------------------




--------------------------------------- Iteration      1(  18)  ---------------------------------------


    POTLOK:  cpu time    0.4758: real time    0.4771
    SETDIJ:  cpu time    0.2414: real time    0.2420
     EDDAV:  cpu time    0.3574: real time    0.3583
       DOS:  cpu time    0.0001: real time    0.0001
    CHARGE:  cpu time    0.2740: real time    0.2746
    MIXING:  cpu time    0.0145: real time    0.0145
    --------------------------------------------
      LOOP:  cpu time    1.3631: real time    1.3666

 eigenvalue-minimisations  :    80
 total energy-change (2. order) :-0.2400039E-02  (-0.4789401E-05)
 number of electron      18.0000000 magnetization      -0.0010247
 augmentation part        0.3902843 magnetization      -0.0010003

 Broyden mixing:
  rms(total) = 0.50011E-03    rms(broyden)= 0.49988E-03
  rms(prec ) = 0.76498E-03
  weight for this iteration     100.00

 eigenvalues of (default mixing * dielectric matrix)
  average eigenvalue GAMMA=   1.6348
  5.3330  3.4573  2.2824  2.0086  1.5303  1.0304  1.0304  0.9299  0.9299  0.7567
  0.6869  0.6204  0.6559

 Free energy of the ion-electron system (eV)
  ---------------------------------------------------
  alpha Z        PSCENC =         0.53791023
  Ewald energy   TEWEN  =       433.76857425
  -Hartree energ DENC   =     -1395.97504054
  -exchange      EXHF   =         0.00000000
  -V(xc)+E(xc)   XCENC  =        69.21595126
  PAW double counting   =       714.74111838     -715.30098048
  entropy T*S    EENTRO =        -0.00000000
  eigenvalues    EBANDS =      -265.39350520
  atomic energy  EATOM  =      1141.34479484
  Solvation  Ediel_sol  =         0.00000000
  ---------------------------------------------------
  free energy    TOTEN  =       -17.06117726 eV

  energy without entropy =      -17.06117726  energy(sigma->0) =      -17.06117726


--------------------------------------------------------------------------------------------------------




--------------------------------------- Iteration      1(  19)  ---------------------------------------


    POTLOK:  cpu time    0.4739: real time    0.4752
    SETDIJ:  cpu time    0.2406: real time    0.2412
     EDDAV:  cpu time    0.3575: real time    0.3584
       DOS:  cpu time    0.0001: real time    0.0001
    CHARGE:  cpu time    0.2756: real time    0.2762
    MIXING:  cpu time    0.0148: real time    0.0148
    --------------------------------------------
      LOOP:  cpu time    1.3625: real time    1.3660

 eigenvalue-minimisations  :    80
 total energy-change (2. order) :-0.1367492E-02  (-0.2200796E-05)
 number of electron      18.0000000 magnetization       0.0012654
 augmentation part        0.3902203 magnetization       0.0012583

 Broyden mixing:
  rms(total) = 0.23467E-03    rms(broyden)= 0.23440E-03
  rms(prec ) = 0.42681E-03
  weight for this iteration     100.00

 eigenvalues of (default mixing * dielectric matrix)
  average eigenvalue GAMMA=   1.7885
  6.9787  3.9099  2.5279  2.2399  1.7634  1.1660  0.9281  0.9281  0.9447  0.9447
  0.7544  0.6924  0.6427  0.6184

 Free energy of the ion-electron system (eV)
  ---------------------------------------------------
  alpha Z        PSCENC =         0.53791023
  Ewald energy   TEWEN  =       433.76857425
  -Hartree energ DENC   =     -1395.97461065
  -exchange      EXHF   =         0.00000000
  -V(xc)+E(xc)   XCENC  =        69.21471544
  PAW double counting   =       714.72562311     -715.28509659
  entropy T*S    EENTRO =        -0.00000000
  eigenvalues    EBANDS =      -265.39445539
  atomic energy  EATOM  =      1141.34479484
  Solvation  Ediel_sol  =         0.00000000
  ---------------------------------------------------
  free energy    TOTEN  =       -17.06254475 eV

  energy without entropy =      -17.06254475  energy(sigma->0) =      -17.06254475


--------------------------------------------------------------------------------------------------------




--------------------------------------- Iteration      1(  20)  ---------------------------------------


    POTLOK:  cpu time    0.4795: real time    0.4809
    SETDIJ:  cpu time    0.2421: real time    0.2427
     EDDAV:  cpu time    0.3864: real time    0.3873
       DOS:  cpu time    0.0001: real time    0.0001
    CHARGE:  cpu time    0.2754: real time    0.2760
    MIXING:  cpu time    0.0174: real time    0.0174
    --------------------------------------------
      LOOP:  cpu time    1.4008: real time    1.4044

 eigenvalue-minimisations  :    88
 total energy-change (2. order) :-0.1540075E-03  (-0.4803454E-06)
 number of electron      18.0000000 magnetization       0.0012814
 augmentation part        0.3902188 magnetization       0.0012698

 Broyden mixing:
  rms(total) = 0.17300E-03    rms(broyden)= 0.17281E-03
  rms(prec ) = 0.29961E-03
  weight for this iteration     100.00

 eigenvalues of (default mixing * dielectric matrix)
  average eigenvalue GAMMA=   1.8170
  7.8410  4.0576  2.6612  2.2545  1.8402  1.2814  0.9370  0.9370  0.9894  0.9894
  0.7900  0.7299  0.6941  0.6170  0.6351

 Free energy of the ion-electron system (eV)
  ---------------------------------------------------
  alpha Z        PSCENC =         0.53791023
  Ewald energy   TEWEN  =       433.76857425
  -Hartree energ DENC   =     -1395.97738597
  -exchange      EXHF   =         0.00000000
  -V(xc)+E(xc)   XCENC  =        69.21459362
  PAW double counting   =       714.72346161     -715.28292395
  entropy T*S    EENTRO =        -0.00000000
  eigenvalues    EBANDS =      -265.39172339
  atomic energy  EATOM  =      1141.34479484
  Solvation  Ediel_sol  =         0.00000000
  ---------------------------------------------------
  free energy    TOTEN  =       -17.06269876 eV

  energy without entropy =      -17.06269876  energy(sigma->0) =      -17.06269876


--------------------------------------------------------------------------------------------------------




--------------------------------------- Iteration      1(  21)  ---------------------------------------


    POTLOK:  cpu time    0.5227: real time    0.5242
    SETDIJ:  cpu time    0.2447: real time    0.2453
     EDDAV:  cpu time    0.3604: real time    0.3613
       DOS:  cpu time    0.0001: real time    0.0001
    CHARGE:  cpu time    0.2756: real time    0.2763
    MIXING:  cpu time    0.0185: real time    0.0185
    --------------------------------------------
      LOOP:  cpu time    1.4220: real time    1.4257

 eigenvalue-minimisations  :    80
 total energy-change (2. order) :-0.7372770E-05  (-0.1429278E-06)
 number of electron      18.0000000 magnetization       0.0007536
 augmentation part        0.3902409 magnetization       0.0007479

 Broyden mixing:
  rms(total) = 0.10694E-03    rms(broyden)= 0.10665E-03
  rms(prec ) = 0.19886E-03
  weight for this iteration     100.00

 eigenvalues of (default mixing * dielectric matrix)
  average eigenvalue GAMMA=   1.8199
  8.1889  4.1105  2.7762  2.2374  1.8965  1.5862  1.1338  0.9176  0.9176  0.9723
  0.9723  0.7433  0.7433  0.6729  0.6314  0.6182

 Free energy of the ion-electron system (eV)
  ---------------------------------------------------
  alpha Z        PSCENC =         0.53791023
  Ewald energy   TEWEN  =       433.76857425
  -Hartree energ DENC   =     -1395.97881284
  -exchange      EXHF   =         0.00000000
  -V(xc)+E(xc)   XCENC  =        69.21453044
  PAW double counting   =       714.72717480     -715.28674569
  entropy T*S    EENTRO =        -0.00000000
  eigenvalues    EBANDS =      -265.39013216
  atomic energy  EATOM  =      1141.34479484
  Solvation  Ediel_sol  =         0.00000000
  ---------------------------------------------------
  free energy    TOTEN  =       -17.06270613 eV

  energy without entropy =      -17.06270613  energy(sigma->0) =      -17.06270613


--------------------------------------------------------------------------------------------------------




--------------------------------------- Iteration      1(  22)  ---------------------------------------


    POTLOK:  cpu time    0.4758: real time    0.4780
    SETDIJ:  cpu time    0.2448: real time    0.2454
     EDDAV:  cpu time    0.3881: real time    0.3891
       DOS:  cpu time    0.0001: real time    0.0001
    CHARGE:  cpu time    0.2746: real time    0.2753
    MIXING:  cpu time    0.0184: real time    0.0184
    --------------------------------------------
      LOOP:  cpu time    1.4018: real time    1.4063

 eigenvalue-minimisations  :    88
 total energy-change (2. order) :-0.6015341E-04  (-0.1241672E-06)
 number of electron      18.0000000 magnetization       0.0001864
 augmentation part        0.3902678 magnetization       0.0001825

 Broyden mixing:
  rms(total) = 0.67472E-04    rms(broyden)= 0.67002E-04
  rms(prec ) = 0.12013E-03
  weight for this iteration     100.00

 eigenvalues of (default mixing * dielectric matrix)
  average eigenvalue GAMMA=   1.8594
  8.4483  4.1806  3.1244  2.3056  2.3056  1.8597  1.2691  0.9255  0.9255  1.0027
  1.0027  0.8631  0.7419  0.7419  0.6654  0.6306  0.6177

 Free energy of the ion-electron system (eV)
  ---------------------------------------------------
  alpha Z        PSCENC =         0.53791023
  Ewald energy   TEWEN  =       433.76857425
  -Hartree energ DENC   =     -1395.97932043
  -exchange      EXHF   =         0.00000000
  -V(xc)+E(xc)   XCENC  =        69.21438909
  PAW double counting   =       714.72984370     -715.28951063
  entropy T*S    EENTRO =        -0.00000000
  eigenvalues    EBANDS =      -265.38944733
  atomic energy  EATOM  =      1141.34479484
  Solvation  Ediel_sol  =         0.00000000
  ---------------------------------------------------
  free energy    TOTEN  =       -17.06276628 eV

  energy without entropy =      -17.06276628  energy(sigma->0) =      -17.06276628


--------------------------------------------------------------------------------------------------------




--------------------------------------- Iteration      1(  23)  ---------------------------------------


    POTLOK:  cpu time    0.4779: real time    0.4793
    SETDIJ:  cpu time    0.2439: real time    0.2445
     EDDAV:  cpu time    0.4256: real time    0.4266
       DOS:  cpu time    0.0001: real time    0.0001
    CHARGE:  cpu time    0.2777: real time    0.2784
    MIXING:  cpu time    0.0189: real time    0.0190
    --------------------------------------------
      LOOP:  cpu time    1.4442: real time    1.4479

 eigenvalue-minimisations  :    96
 total energy-change (2. order) :-0.6405563E-04  (-0.7309739E-07)
 number of electron      18.0000000 magnetization      -0.0000098
 augmentation part        0.3902784 magnetization      -0.0000098

 Broyden mixing:
  rms(total) = 0.74984E-04    rms(broyden)= 0.74585E-04
  rms(prec ) = 0.96240E-04
  weight for this iteration     100.00

 eigenvalues of (default mixing * dielectric matrix)
  average eigenvalue GAMMA=   1.8985
  8.6706  4.4750  3.7842  2.6053  2.2375  1.8749  1.4053  1.1592  0.9174  0.9174
  0.9884  0.9884  0.7588  0.7588  0.7212  0.6651  0.6170  0.6285

 Free energy of the ion-electron system (eV)
  ---------------------------------------------------
  alpha Z        PSCENC =         0.53791023
  Ewald energy   TEWEN  =       433.76857425
  -Hartree energ DENC   =     -1395.97970837
  -exchange      EXHF   =         0.00000000
  -V(xc)+E(xc)   XCENC  =        69.21432785
  PAW double counting   =       714.73055850     -715.29025533
  entropy T*S    EENTRO =        -0.00000000
  eigenvalues    EBANDS =      -265.38903230
  atomic energy  EATOM  =      1141.34479484
  Solvation  Ediel_sol  =         0.00000000
  ---------------------------------------------------
  free energy    TOTEN  =       -17.06283034 eV

  energy without entropy =      -17.06283034  energy(sigma->0) =      -17.06283034


--------------------------------------------------------------------------------------------------------




--------------------------------------- Iteration      1(  24)  ---------------------------------------


    POTLOK:  cpu time    0.4984: real time    0.4998
    SETDIJ:  cpu time    0.2461: real time    0.2467
     EDDAV:  cpu time    0.3694: real time    0.3703
       DOS:  cpu time    0.0001: real time    0.0001
    CHARGE:  cpu time    0.2797: real time    0.2804
    MIXING:  cpu time    0.0194: real time    0.0195
    --------------------------------------------
      LOOP:  cpu time    1.4131: real time    1.4167

 eigenvalue-minimisations  :    80
 total energy-change (2. order) :-0.1746057E-04  (-0.2895097E-07)
 number of electron      18.0000000 magnetization      -0.0000753
 augmentation part        0.3902696 magnetization      -0.0000740

 Broyden mixing:
  rms(total) = 0.37859E-04    rms(broyden)= 0.37073E-04
  rms(prec ) = 0.50352E-04
  weight for this iteration     100.00

 eigenvalues of (default mixing * dielectric matrix)
  average eigenvalue GAMMA=   1.9387
  8.9008  5.2718  3.9947  2.6856  2.2286  1.9500  1.7545  1.2343  0.9231  0.9231
  1.0077  1.0077  0.8698  0.7428  0.7428  0.6943  0.6612  0.6181  0.6244

 Free energy of the ion-electron system (eV)
  ---------------------------------------------------
  alpha Z        PSCENC =         0.53791023
  Ewald energy   TEWEN  =       433.76857425
  -Hartree energ DENC   =     -1395.98020317
  -exchange      EXHF   =         0.00000000
  -V(xc)+E(xc)   XCENC  =        69.21439641
  PAW double counting   =       714.72992908     -715.28959395
  entropy T*S    EENTRO =        -0.00000000
  eigenvalues    EBANDS =      -265.38865549
  atomic energy  EATOM  =      1141.34479484
  Solvation  Ediel_sol  =         0.00000000
  ---------------------------------------------------
  free energy    TOTEN  =       -17.06284780 eV

  energy without entropy =      -17.06284780  energy(sigma->0) =      -17.06284780


--------------------------------------------------------------------------------------------------------




--------------------------------------- Iteration      1(  25)  ---------------------------------------


    POTLOK:  cpu time    0.5012: real time    0.5026
    SETDIJ:  cpu time    0.2444: real time    0.2450
     EDDAV:  cpu time    0.4287: real time    0.4297
       DOS:  cpu time    0.0001: real time    0.0001
    CHARGE:  cpu time    0.2785: real time    0.2792
    MIXING:  cpu time    0.0206: real time    0.0207
    --------------------------------------------
      LOOP:  cpu time    1.4734: real time    1.4773

 eigenvalue-minimisations  :    96
 total energy-change (2. order) :-0.2681234E-05  (-0.8430623E-08)
 number of electron      18.0000000 magnetization      -0.0000907
 augmentation part        0.3902592 magnetization      -0.0000897

 Broyden mixing:
  rms(total) = 0.14606E-04    rms(broyden)= 0.12421E-04
  rms(prec ) = 0.22516E-04
  weight for this iteration     100.00
  WARNING: grid for Broyden might be to small

 eigenvalues of (default mixing * dielectric matrix)
  average eigenvalue GAMMA=   1.9906
  9.1627  6.2584  4.0685  2.8199  2.3311  2.1068  1.9024  1.3296  1.1446  0.9239
  0.9239  0.9849  0.9849  0.7824  0.7593  0.7593  0.6809  0.6465  0.6189  0.6228

 Free energy of the ion-electron system (eV)
  ---------------------------------------------------
  alpha Z        PSCENC =         0.53791023
  Ewald energy   TEWEN  =       433.76857425
  -Hartree energ DENC   =     -1395.98017987
  -exchange      EXHF   =         0.00000000
  -V(xc)+E(xc)   XCENC  =        69.21443984
  PAW double counting   =       714.72941679     -715.28905194
  entropy T*S    EENTRO =        -0.00000000
  eigenvalues    EBANDS =      -265.38875462
  atomic energy  EATOM  =      1141.34479484
  Solvation  Ediel_sol  =         0.00000000
  ---------------------------------------------------
  free energy    TOTEN  =       -17.06285048 eV

  energy without entropy =      -17.06285048  energy(sigma->0) =      -17.06285048


--------------------------------------------------------------------------------------------------------




--------------------------------------- Iteration      1(  26)  ---------------------------------------


    POTLOK:  cpu time    0.5031: real time    0.5045
    SETDIJ:  cpu time    0.2458: real time    0.2464
     EDDAV:  cpu time    0.3679: real time    0.3688
       DOS:  cpu time    0.0001: real time    0.0001
    CHARGE:  cpu time    0.2839: real time    0.2846
    MIXING:  cpu time    0.0207: real time    0.0208
    --------------------------------------------
      LOOP:  cpu time    1.4215: real time    1.4252

 eigenvalue-minimisations  :    80
 total energy-change (2. order) :-0.2751373E-05  (-0.4022777E-08)
 number of electron      18.0000000 magnetization      -0.0000537
 augmentation part        0.3902564 magnetization      -0.0000533

 Broyden mixing:
  rms(total) = 0.16203E-04    rms(broyden)= 0.14281E-04
  rms(prec ) = 0.18811E-04
  weight for this iteration     100.00
  WARNING: grid for Broyden might be to small

 eigenvalues of (default mixing * dielectric matrix)
  average eigenvalue GAMMA=   1.9928
  9.2959  6.7087  4.0899  2.9463  2.3839  2.1813  1.9113  1.5172  1.2225  0.9242
  0.9242  1.0034  1.0034  0.8873  0.7734  0.7562  0.7562  0.6787  0.6424  0.6181
  0.6240

 Free energy of the ion-electron system (eV)
  ---------------------------------------------------
  alpha Z        PSCENC =         0.53791023
  Ewald energy   TEWEN  =       433.76857425
  -Hartree energ DENC   =     -1395.97975002
  -exchange      EXHF   =         0.00000000
  -V(xc)+E(xc)   XCENC  =        69.21443707
  PAW double counting   =       714.72902074     -715.28864247
  entropy T*S    EENTRO =        -0.00000000
  eigenvalues    EBANDS =      -265.38919787
  atomic energy  EATOM  =      1141.34479484
  Solvation  Ediel_sol  =         0.00000000
  ---------------------------------------------------
  free energy    TOTEN  =       -17.06285323 eV

  energy without entropy =      -17.06285323  energy(sigma->0) =      -17.06285323


--------------------------------------------------------------------------------------------------------




--------------------------------------- Iteration      1(  27)  ---------------------------------------


    POTLOK:  cpu time    0.5010: real time    0.5024
    SETDIJ:  cpu time    0.2456: real time    0.2462
     EDDAV:  cpu time    0.4001: real time    0.4010
       DOS:  cpu time    0.0001: real time    0.0001
    CHARGE:  cpu time    0.2810: real time    0.2817
    MIXING:  cpu time    0.0219: real time    0.0220
    --------------------------------------------
      LOOP:  cpu time    1.4497: real time    1.4534

 eigenvalue-minimisations  :    88
 total energy-change (2. order) :-0.3275572E-05  (-0.3050610E-08)
 number of electron      18.0000000 magnetization      -0.0000251
 augmentation part        0.3902576 magnetization      -0.0000250

 Broyden mixing:
  rms(total) = 0.11417E-04    rms(broyden)= 0.84744E-05
  rms(prec ) = 0.10561E-04
  weight for this iteration     100.00
  WARNING: grid for Broyden might be to small

 eigenvalues of (default mixing * dielectric matrix)
  average eigenvalue GAMMA=   2.0215
  9.4403  7.1076  4.1264  3.2908  2.4917  2.3644  1.9053  1.9053  1.3118  1.1517
  0.9253  0.9253  0.9813  0.9813  0.7720  0.7720  0.7686  0.7087  0.6682  0.6179
  0.6226  0.6346

 Free energy of the ion-electron system (eV)
  ---------------------------------------------------
  alpha Z        PSCENC =         0.53791023
  Ewald energy   TEWEN  =       433.76857425
  -Hartree energ DENC   =     -1395.97929667
  -exchange      EXHF   =         0.00000000
  -V(xc)+E(xc)   XCENC  =        69.21441227
  PAW double counting   =       714.72889709     -715.28852129
  entropy T*S    EENTRO =        -0.00000000
  eigenvalues    EBANDS =      -265.38962723
  atomic energy  EATOM  =      1141.34479484
  Solvation  Ediel_sol  =         0.00000000
  ---------------------------------------------------
  free energy    TOTEN  =       -17.06285651 eV

  energy without entropy =      -17.06285651  energy(sigma->0) =      -17.06285651


--------------------------------------------------------------------------------------------------------




--------------------------------------- Iteration      1(  28)  ---------------------------------------


    POTLOK:  cpu time    0.5029: real time    0.5044
    SETDIJ:  cpu time    0.2449: real time    0.2455
     EDDAV:  cpu time    0.3695: real time    0.3705
       DOS:  cpu time    0.0001: real time    0.0001
    CHARGE:  cpu time    0.2798: real time    0.2805
    MIXING:  cpu time    0.0227: real time    0.0242
    --------------------------------------------
      LOOP:  cpu time    1.4200: real time    1.4252

 eigenvalue-minimisations  :    80
 total energy-change (2. order) :-0.2154969E-05  (-0.1489974E-08)
 number of electron      18.0000000 magnetization      -0.0000111
 augmentation part        0.3902591 magnetization      -0.0000110

 Broyden mixing:
  rms(total) = 0.81603E-05    rms(broyden)= 0.28402E-05
  rms(prec ) = 0.39160E-05
  weight for this iteration     100.00
  WARNING: grid for Broyden might be to small

 eigenvalues of (default mixing * dielectric matrix)
  average eigenvalue GAMMA=   2.0507
  9.6062  7.4206  4.3048  3.8497  2.7138  2.3681  2.0236  1.9083  1.4342  1.2051
  0.9242  0.9242  1.0106  0.9729  0.9729  0.7672  0.7672  0.7633  0.7003  0.6631
  0.6294  0.6172  0.6200

 Free energy of the ion-electron system (eV)
  ---------------------------------------------------
  alpha Z        PSCENC =         0.53791023
  Ewald energy   TEWEN  =       433.76857425
  -Hartree energ DENC   =     -1395.97906170
  -exchange      EXHF   =         0.00000000
  -V(xc)+E(xc)   XCENC  =        69.21439585
  PAW double counting   =       714.72898453     -715.28861353
  entropy T*S    EENTRO =        -0.00000000
  eigenvalues    EBANDS =      -265.38984314
  atomic energy  EATOM  =      1141.34479484
  Solvation  Ediel_sol  =         0.00000000
  ---------------------------------------------------
  free energy    TOTEN  =       -17.06285866 eV

  energy without entropy =      -17.06285866  energy(sigma->0) =      -17.06285866


--------------------------------------------------------------------------------------------------------




--------------------------------------- Iteration      1(  29)  ---------------------------------------


    POTLOK:  cpu time    0.5050: real time    0.5064
    SETDIJ:  cpu time    0.2468: real time    0.2474
     EDDAV:  cpu time    0.3989: real time    0.3999
       DOS:  cpu time    0.0001: real time    0.0001
    CHARGE:  cpu time    0.2813: real time    0.2820
    MIXING:  cpu time    0.0249: real time    0.0250
    --------------------------------------------
      LOOP:  cpu time    1.4570: real time    1.4608

 eigenvalue-minimisations  :    88
 total energy-change (2. order) :-0.7159369E-06  (-0.3144578E-09)
 number of electron      18.0000000 magnetization      -0.0000033
 augmentation part        0.3902596 magnetization      -0.0000032

 Broyden mixing:
  rms(total) = 0.77892E-05    rms(broyden)= 0.14695E-05
  rms(prec ) = 0.21388E-05
  weight for this iteration     100.00
  WARNING: grid for Broyden might be to small

 eigenvalues of (default mixing * dielectric matrix)
  average eigenvalue GAMMA=   2.0449
  9.7128  7.5519  4.5554  3.9760  2.7861  2.3738  2.0951  1.8404  1.6294  1.2588
  1.1368  0.9247  0.9247  0.9732  0.9732  0.8018  0.8018  0.7989  0.7414  0.6970
  0.6606  0.6293  0.6172  0.6172

 Free energy of the ion-electron system (eV)
  ---------------------------------------------------
  alpha Z        PSCENC =         0.53791023
  Ewald energy   TEWEN  =       433.76857425
  -Hartree energ DENC   =     -1395.97898324
  -exchange      EXHF   =         0.00000000
  -V(xc)+E(xc)   XCENC  =        69.21439005
  PAW double counting   =       714.72913295     -715.28876483
  entropy T*S    EENTRO =        -0.00000000
  eigenvalues    EBANDS =      -265.38991362
  atomic energy  EATOM  =      1141.34479484
  Solvation  Ediel_sol  =         0.00000000
  ---------------------------------------------------
  free energy    TOTEN  =       -17.06285938 eV

  energy without entropy =      -17.06285938  energy(sigma->0) =      -17.06285938


--------------------------------------------------------------------------------------------------------




--------------------------------------- Iteration      1(  30)  ---------------------------------------


    POTLOK:  cpu time    0.5035: real time    0.5049
    SETDIJ:  cpu time    0.2464: real time    0.2470
     EDDAV:  cpu time    0.3412: real time    0.3420
       DOS:  cpu time    0.0001: real time    0.0001
    CHARGE:  cpu time    0.2813: real time    0.2820
    MIXING:  cpu time    0.0261: real time    0.0262
    --------------------------------------------
      LOOP:  cpu time    1.3986: real time    1.4022

 eigenvalue-minimisations  :    72
 total energy-change (2. order) :-0.1520809E-06  (-0.3880363E-10)
 number of electron      18.0000000 magnetization       0.0000007
 augmentation part        0.3902597 magnetization       0.0000008

 Broyden mixing:
  rms(total) = 0.77275E-05    rms(broyden)= 0.10973E-05
  rms(prec ) = 0.15020E-05
  weight for this iteration     100.00
  WARNING: grid for Broyden might be to small

 eigenvalues of (default mixing * dielectric matrix)
  average eigenvalue GAMMA=   2.0493
  9.8022  7.6652  4.8465  4.0345  2.8434  2.3873  2.1810  1.9406  1.9406  1.3706
  1.1998  0.9243  0.9243  0.9751  0.9751  0.9910  0.7616  0.7616  0.7545  0.7545
  0.6850  0.6546  0.6292  0.6155  0.6145

 Free energy of the ion-electron system (eV)
  ---------------------------------------------------
  alpha Z        PSCENC =         0.53791023
  Ewald energy   TEWEN  =       433.76857425
  -Hartree energ DENC   =     -1395.97894871
  -exchange      EXHF   =         0.00000000
  -V(xc)+E(xc)   XCENC  =        69.21438843
  PAW double counting   =       714.72918485     -715.28881735
  entropy T*S    EENTRO =        -0.00000000
  eigenvalues    EBANDS =      -265.38994607
  atomic energy  EATOM  =      1141.34479484
  Solvation  Ediel_sol  =         0.00000000
  ---------------------------------------------------
  free energy    TOTEN  =       -17.06285953 eV

  energy without entropy =      -17.06285953  energy(sigma->0) =      -17.06285953


--------------------------------------------------------------------------------------------------------




--------------------------------------- Iteration      1(  31)  ---------------------------------------


    POTLOK:  cpu time    0.5055: real time    0.5069
    SETDIJ:  cpu time    0.2488: real time    0.2494
     EDDAV:  cpu time    0.3415: real time    0.3424
[...]
  0.9534  0.8992  0.6266

 Free energy of the ion-electron system (eV)
  ---------------------------------------------------
  alpha Z        PSCENC =         0.53791023
  Ewald energy   TEWEN  =       433.97933586
  -Hartree energ DENC   =     -1396.15463871
  -exchange      EXHF   =         0.00000000
  -V(xc)+E(xc)   XCENC  =        69.21954396
  PAW double counting   =       714.90096508     -715.46137807
  entropy T*S    EENTRO =        -0.00000000
  eigenvalues    EBANDS =      -265.42937128
  atomic energy  EATOM  =      1141.34479484
  Solvation  Ediel_sol  =         0.00000000
  ---------------------------------------------------
  free energy    TOTEN  =       -17.06283809 eV

  energy without entropy =      -17.06283809  energy(sigma->0) =      -17.06283809


--------------------------------------------------------------------------------------------------------




--------------------------------------- Iteration     10(  15)  ---------------------------------------


    POTLOK:  cpu time    0.4997: real time    0.5011
    SETDIJ:  cpu time    0.2450: real time    0.2456
     EDDAV:  cpu time    0.2524: real time    0.2530
       DOS:  cpu time    0.0001: real time    0.0001
    CHARGE:  cpu time    0.2777: real time    0.2784
    MIXING:  cpu time    0.0161: real time    0.0161
    --------------------------------------------
      LOOP:  cpu time    1.2910: real time    1.2943

 eigenvalue-minimisations  :    48
 total energy-change (2. order) :-0.4995786E-07  ( 0.1054001E-10)
 number of electron      18.0000000 magnetization      -0.0000000
 augmentation part        0.3904907 magnetization       0.0000000

 Broyden mixing:
  rms(total) = 0.76588E-05    rms(broyden)= 0.45447E-06
  rms(prec ) = 0.79181E-06
  weight for this iteration     100.00
  WARNING: grid for Broyden might be to small

 eigenvalues of (default mixing * dielectric matrix)
  average eigenvalue GAMMA=   2.1147
  8.6253  4.6282  2.8833  2.4601  2.0420  1.4489  1.4489  1.0607  1.0607  0.7077
  0.9105  0.9105  0.7978  0.6217

 Free energy of the ion-electron system (eV)
  ---------------------------------------------------
  alpha Z        PSCENC =         0.53791023
  Ewald energy   TEWEN  =       433.97933586
  -Hartree energ DENC   =     -1396.15464043
  -exchange      EXHF   =         0.00000000
  -V(xc)+E(xc)   XCENC  =        69.21954418
  PAW double counting   =       714.90096583     -715.46137882
  entropy T*S    EENTRO =        -0.00000000
  eigenvalues    EBANDS =      -265.42936982
  atomic energy  EATOM  =      1141.34479484
  Solvation  Ediel_sol  =         0.00000000
  ---------------------------------------------------
  free energy    TOTEN  =       -17.06283814 eV

  energy without entropy =      -17.06283814  energy(sigma->0) =      -17.06283814


--------------------------------------------------------------------------------------------------------




--------------------------------------- Iteration     10(  16)  ---------------------------------------


    POTLOK:  cpu time    0.5029: real time    0.5043
    SETDIJ:  cpu time    0.2459: real time    0.2465
     EDDAV:  cpu time    0.3104: real time    0.3112
       DOS:  cpu time    0.0001: real time    0.0001
    CHARGE:  cpu time    0.2806: real time    0.2812
    MIXING:  cpu time    0.0168: real time    0.0169
    --------------------------------------------
      LOOP:  cpu time    1.3566: real time    1.3601

 eigenvalue-minimisations  :    64
 total energy-change (2. order) :-0.1767762E-07  ( 0.2018297E-10)
 number of electron      18.0000000 magnetization      -0.0000000
 augmentation part        0.3904907 magnetization      -0.0000000

 Broyden mixing:
  rms(total) = 0.76506E-05    rms(broyden)= 0.28541E-06
  rms(prec ) = 0.45743E-06
  weight for this iteration     100.00
  WARNING: grid for Broyden might be to small

 eigenvalues of (default mixing * dielectric matrix)
  average eigenvalue GAMMA=   2.1299
  8.7602  5.0818  3.1778  2.5263  1.9959  1.9959  1.3054  1.3054  1.0053  0.9592
  0.9592  0.8803  0.7078  0.6708  0.6169

 Free energy of the ion-electron system (eV)
  ---------------------------------------------------
  alpha Z        PSCENC =         0.53791023
  Ewald energy   TEWEN  =       433.97933586
  -Hartree energ DENC   =     -1396.15463502
  -exchange      EXHF   =         0.00000000
  -V(xc)+E(xc)   XCENC  =        69.21954399
  PAW double counting   =       714.90095736     -715.46137031
  entropy T*S    EENTRO =        -0.00000000
  eigenvalues    EBANDS =      -265.42937511
  atomic energy  EATOM  =      1141.34479484
  Solvation  Ediel_sol  =         0.00000000
  ---------------------------------------------------
  free energy    TOTEN  =       -17.06283816 eV

  energy without entropy =      -17.06283816  energy(sigma->0) =      -17.06283816


--------------------------------------------------------------------------------------------------------




--------------------------------------- Iteration     10(  17)  ---------------------------------------


    POTLOK:  cpu time    0.5042: real time    0.5057
    SETDIJ:  cpu time    0.2444: real time    0.2450
     EDDAV:  cpu time    0.3695: real time    0.3704
       DOS:  cpu time    0.0001: real time    0.0001
    --------------------------------------------
      LOOP:  cpu time    1.1182: real time    1.1212

 eigenvalue-minimisations  :    80
 total energy-change (2. order) :-0.5619540E-08  ( 0.2331824E-10)
 number of electron      18.0000000 magnetization      -0.0000000
 augmentation part        0.3904907 magnetization      -0.0000000

 Free energy of the ion-electron system (eV)
  ---------------------------------------------------
  alpha Z        PSCENC =         0.53791023
  Ewald energy   TEWEN  =       433.97933586
  -Hartree energ DENC   =     -1396.15463240
  -exchange      EXHF   =         0.00000000
  -V(xc)+E(xc)   XCENC  =        69.21954388
  PAW double counting   =       714.90095453     -715.46136747
  entropy T*S    EENTRO =        -0.00000000
  eigenvalues    EBANDS =      -265.42937763
  atomic energy  EATOM  =      1141.34479484
  Solvation  Ediel_sol  =         0.00000000
  ---------------------------------------------------
  free energy    TOTEN  =       -17.06283817 eV

  energy without entropy =      -17.06283817  energy(sigma->0) =      -17.06283817


--------------------------------------------------------------------------------------------------------




 average (electrostatic) potential at core
  the test charge radii are     0.7215  0.9698
  (the norm of the test charge is              1.0000)
       1 -81.9742       2 -81.9698       3-100.1475
 
 
 
 E-fermi :  -7.6637     XC(G=0):  -0.4175     alpha+bet : -0.1482


 spin component 1

 k-point     1 :       0.0000    0.0000    0.0000
  band No.  band energies     occupation 
      1     -28.7455      1.00000
      2     -26.3353      1.00000
      3     -15.7718      1.00000
      4     -12.2050      1.00000
      5     -11.9312      1.00000
      6     -11.9286      1.00000
      7      -9.2578      1.00000
      8      -8.5827      1.00000
      9      -7.9567      1.00000
     10      -4.4287      0.00000
     11      -0.5966      0.00000
     12      -0.0846      0.00000
     13       0.1909      0.00000
     14       0.4729      0.00000
     15       0.6195      0.00000
     16       0.8170      0.00000

 spin component 2

 k-point     1 :       0.0000    0.0000    0.0000
  band No.  band energies     occupation 
      1     -28.7455      1.00000
      2     -26.3353      1.00000
      3     -15.7718      1.00000
      4     -12.2050      1.00000
      5     -11.9312      1.00000
      6     -11.9286      1.00000
      7      -9.2578      1.00000
      8      -8.5827      1.00000
      9      -7.9567      1.00000
     10      -4.4287      0.00000
     11      -0.5966      0.00000
     12      -0.0846      0.00000
     13       0.1909      0.00000
     14       0.4729      0.00000
     15       0.6195      0.00000
     16       0.8170      0.00000


--------------------------------------------------------------------------------------------------------


 soft charge-density along one line, spin component           1
         0         1         2         3         4         5         6         7         8         9
 total charge-density along one line
 
 soft charge-density along one line, spin component           2
         0         1         2         3         4         5         6         7         8         9
 total charge-density along one line
 
 pseudopotential strength for first ion, spin component:           1
 13.996  -0.561  -0.040   0.093   0.070   0.002  -0.005  -0.004
 -0.561   0.127   0.005  -0.011  -0.008  -0.001   0.002   0.001
 -0.040   0.005 -10.743   0.059   0.002   0.352  -0.010   0.000
  0.093  -0.011   0.059 -10.804  -0.051  -0.010   0.361   0.008
  0.070  -0.008   0.002  -0.051 -10.805   0.000   0.008   0.363
  0.002  -0.001   0.352  -0.010   0.000   0.108   0.003  -0.000
 -0.005   0.002  -0.010   0.361   0.008   0.003   0.105  -0.002
 -0.004   0.001   0.000   0.008   0.363  -0.000  -0.002   0.104
 pseudopotential strength for first ion, spin component:           2
 13.996  -0.561  -0.040   0.093   0.070   0.002  -0.005  -0.004
 -0.561   0.127   0.005  -0.011  -0.008  -0.001   0.002   0.001
 -0.040   0.005 -10.743   0.059   0.002   0.352  -0.010   0.000
  0.093  -0.011   0.059 -10.804  -0.051  -0.010   0.361   0.008
  0.070  -0.008   0.002  -0.051 -10.805   0.000   0.008   0.363
  0.002  -0.001   0.352  -0.010   0.000   0.108   0.003  -0.000
 -0.005   0.002  -0.010   0.361   0.008   0.003   0.105  -0.002
 -0.004   0.001   0.000   0.008   0.363  -0.000  -0.002   0.104
 total augmentation occupancy for first ion, spin component:           1
  1.938   0.150  -0.048   0.092   0.075   0.016  -0.040  -0.030
  0.150   0.054   0.057  -0.123  -0.096   0.015  -0.041  -0.029
 -0.048   0.057   1.566   0.105  -0.081   0.142  -0.032  -0.023
  0.092  -0.123   0.105   1.600   0.033  -0.030   0.193   0.050
  0.075  -0.096  -0.081   0.033   1.446  -0.023   0.051   0.168
  0.016   0.015   0.142  -0.030  -0.023   0.018  -0.011  -0.007
 -0.040  -0.041  -0.032   0.193   0.051  -0.011   0.041   0.020
 -0.030  -0.029  -0.023   0.050   0.168  -0.007   0.020   0.029
 total augmentation occupancy for first ion, spin component:           2
 -0.000   0.000   0.000   0.000  -0.000  -0.000  -0.000  -0.000
  0.000   0.000  -0.000  -0.000   0.000  -0.000  -0.000  -0.000
  0.000  -0.000  -0.000  -0.000   0.000   0.000   0.000   0.000
  0.000  -0.000  -0.000  -0.000   0.000   0.000   0.000   0.000
 -0.000   0.000   0.000   0.000  -0.000   0.000   0.000  -0.000
 -0.000  -0.000   0.000   0.000   0.000   0.000   0.000   0.000
 -0.000  -0.000   0.000   0.000   0.000   0.000   0.000   0.000
 -0.000  -0.000   0.000   0.000  -0.000   0.000   0.000  -0.000


------------------------ aborting loop because EDIFF is reached ----------------------------------------


 


 total charge     
 
# of ion       s       p       d       tot
------------------------------------------
    1        1.637   3.470   0.000   5.107
    2        1.637   3.469   0.000   5.106
    3        1.376   2.216   0.000   3.593
--------------------------------------------------
tot          4.650   9.156   0.000  13.806
 


 magnetization (x)
 
# of ion       s       p       d       tot
------------------------------------------
    1       -0.000  -0.000   0.000  -0.000
    2        0.000   0.000   0.000   0.000
    3        0.000   0.000   0.000   0.000
--------------------------------------------------
tot          0.000   0.000   0.000   0.000
 
    CHARGE:  cpu time    0.2810: real time    0.2817
    FORLOC:  cpu time    0.0167: real time    0.0167
    FORNL :  cpu time    1.5655: real time    1.5693
    STRESS:  cpu time    4.9447: real time    4.9568
    FORCOR:  cpu time    0.4808: real time    0.4820
    FORHAR:  cpu time    0.0659: real time    0.0660
    MIXING:  cpu time    0.0158: real time    0.0159
    OFIELD:  cpu time    0.0000: real time    0.0000

  FORCE on cell =-STRESS in cart. coord.  units (eV):
  Direction    XX          YY          ZZ          XY          YZ          ZX
  --------------------------------------------------------------------------------------
  Alpha Z     0.53791     0.53791     0.53791
  Ewald     160.99492   239.41542    33.56893  -307.82370  -110.43382   188.82181
  Hartree   490.13862   528.22965   377.78637  -163.70188   -63.69573    98.64373
  E(xc)     -81.18338   -80.98608   -81.16401    -0.59178    -0.14333     0.37289
  Local    -929.71798 -1049.14550  -704.61654   461.92627   162.37109  -282.07920
  n-local    22.70495    22.92921    22.99264    -0.36494     0.07718     0.25179
  augment    -4.93759    -4.71924    -4.39612     0.00694     0.34250     0.02037
  Kinetic   340.21652   342.45232   353.94870    10.50740    11.40389    -5.98862
  Fock        0.00000     0.00000     0.00000     0.00000     0.00000     0.00000
  -------------------------------------------------------------------------------------
  Total      -1.24603    -1.28631    -1.34211    -0.04170    -0.07822     0.04276
  in kB      -0.83476    -0.86175    -0.89913    -0.02794    -0.05240     0.02865
  external pressure =       -0.87 kB  Pullay stress =        0.00 kB


 VOLUME and BASIS-vectors are now :
 -----------------------------------------------------------------------------
  energy-cutoff  :      400.00
  volume of cell :     2391.54
      direct lattice vectors                 reciprocal lattice vectors
    13.675000191  0.000000000  0.000000000     0.073126142  0.042219398  0.000000000
    -6.837500095 11.842897562  0.000000000     0.000000000  0.084438795  0.000000000
     0.000000000  0.000000000 14.767000198     0.000000000  0.000000000  0.067718561

  length of vectors
    13.675000191 13.675000191 14.767000198     0.084438795  0.084438795  0.067718561


 FORCES acting on ions
    electron-ion (+dipol)            ewald-force                    non-local-force                 convergence-correction
 -----------------------------------------------------------------------------------------------
   -.160E+03 0.111E+03 -.185E+03   0.189E+03 -.127E+03 0.223E+03   -.288E+02 0.165E+02 -.379E+02   0.344E-05 0.194E-06 0.916E-05
   0.155E+03 -.218E+03 0.149E+02   -.182E+03 0.260E+03 -.123E+02   0.274E+02 -.421E+02 -.260E+01   0.195E-05 -.609E-05 -.353E-05
   0.676E+01 0.129E+03 0.205E+03   -.694E+01 -.133E+03 -.211E+03   0.160E+00 0.381E+01 0.595E+01   -.382E-05 0.478E-05 -.379E-05
 -----------------------------------------------------------------------------------------------
   0.118E+01 0.218E+02 0.346E+02   -.284E-13 0.284E-13 0.000E+00   -.118E+01 -.218E+02 -.346E+02   0.157E-05 -.112E-05 0.184E-05
 
 
 POSITION                                       TOTAL-FORCE (eV/Angst)
 -----------------------------------------------------------------------------------
      8.04605      5.89812     10.07701         0.023209     -0.008471      0.037556
      6.46077      7.55098      9.08147         0.000713      0.003732      0.005291
      7.23373      6.33316      8.96194        -0.023922      0.004739     -0.042847
 -----------------------------------------------------------------------------------
    total drift:                               -0.000095     -0.000379      0.000642


--------------------------------------------------------------------------------------------------------



  FREE ENERGIE OF THE ION-ELECTRON SYSTEM (eV)
  ---------------------------------------------------
  free  energy   TOTEN  =       -17.06283817 eV

  energy  without entropy=      -17.06283817  energy(sigma->0) =      -17.06283817
 
 d Force = 0.4983492E-06[-0.476E-04, 0.486E-04]  d Energy = 0.1042291E-05-0.544E-06
 d Force =-0.7780838E-01[-0.779E-01,-0.777E-01]  d Ewald  =-0.7780832E-01-0.622E-07


--------------------------------------------------------------------------------------------------------


    POTLOK:  cpu time    0.7541: real time    0.7560


--------------------------------------------------------------------------------------------------------


DOING DYMAT, READING DISPLACECAR
FOR   1 OUT OF   1
 HIPREC POSITION (A)    
 -----------------------------------------------------------------------------------
 DYNMAT: Loop at J=           1
 DYNMAT: Before DIRKAR
 DYNMAT: After DIRKAR
       8.046047334582594       5.898120387280407      10.077012249734612
 DYNMAT: Loop at J=           2
 DYNMAT: Before DIRKAR
 DYNMAT: After DIRKAR
       6.460769396546094       7.550978561033897       9.081468741800697
 DYNMAT: Loop at J=           3
 DYNMAT: Before DIRKAR
 DYNMAT: After DIRKAR
       7.233725491200504       6.333155998084336       8.961937864517379
 HIPREC TOTAL-FORCE (eV/A)    
 -----------------------------------------------------------------------------------
       0.023209048551019      -0.008471313870746       0.037556230518174
       0.000713057161598       0.003732254778615       0.005291145200388
      -0.023922105712617       0.004739059092131      -0.042847375718562
DYMAT: ------------------------------
DYMAT: DEGREE OF FREEDOM   1  1  1
DYMAT: ------------------------------
DYMAT: DEGREE OF FREEDOM   1  2  2
DYMAT: ------------------------------
DYMAT: DEGREE OF FREEDOM   1  3  3
DYMAT: ------------------------------
DYMAT: DEGREE OF FREEDOM   2  1  4
DYMAT: ------------------------------
DYMAT: DEGREE OF FREEDOM   2  2  5
DYMAT: ------------------------------
DYMAT: DEGREE OF FREEDOM   2  3  6
DYMAT: ------------------------------
DYMAT: DEGREE OF FREEDOM   3  1  7
DYMAT: ------------------------------
DYMAT: DEGREE OF FREEDOM   3  2  8
DYMAT: ------------------------------
DYMAT: DEGREE OF FREEDOM   3  3  9
DYMAT: LEAVING
 stress matrix after NEB project (eV)
     -1.24603     -0.04170      0.04276
     -0.04170     -1.28631     -0.07822
      0.04276     -0.07822     -1.34211
  FORCES: max atom, RMS     0.049301    0.038704
  FORCE total and by dimension    0.067037    0.042847
  Stress total and by dimension    2.242280    1.342111


--------------------------------------------------------------------------------------------------------


     LOOP+:  cpu time   31.9230: real time   32.1082
    4ORBIT:  cpu time    0.0000: real time    0.0000
 


 total charge     
 
# of ion       s       p       d       tot
------------------------------------------
    1        1.637   3.470   0.000   5.107
    2        1.637   3.469   0.000   5.106
    3        1.376   2.216   0.000   3.593
--------------------------------------------------
tot          4.650   9.156   0.000  13.806
 


 magnetization (x)
 
# of ion       s       p       d       tot
------------------------------------------
    1       -0.000  -0.000   0.000  -0.000
    2        0.000   0.000   0.000   0.000
    3        0.000   0.000   0.000   0.000
--------------------------------------------------
tot          0.000   0.000   0.000   0.000
 

 total amount of memory used by VASP MPI-rank0   145291. kBytes
=======================================================================

   base      :      30000. kBytes
   nonlr-proj:        484. kBytes
   fftplans  :      63994. kBytes
   grid      :      49417. kBytes
   one-center:          6. kBytes
   wavefun   :       1390. kBytes
 
  
  
 General timing and accounting informations for this job:
 ========================================================
  
                  Total CPU time used (sec):      296.207
                            User time (sec):      279.636
                          System time (sec):       16.571
                         Elapsed time (sec):      298.480
  
                   Maximum memory used (kb):      246316.
                   Average memory used (kb):           0.
  
                          Minor page faults:       101043
                          Major page faults:            3
                 Voluntary context switches:         1216
