>>>  VASP 5.4.4 with BEEF-vdw and vtst
--------------------------------------------------------
>>>  Job information
     SLURM_JOBID=8766761
     SLURM_JOB_NODELIST=cpn-q08-31-01
     SLURM_NNODES=1
     SLURMTMPDIR=/scratch/8766761
     working directory = /projects/academic/ericwalk/ruthbell/Ads_Ag-SSZ13/SULPHURS/DMS/PBE
--------------------------------------------------------
>>>  Module information
--------------------------------------------------------
>>>  Running Configuration
NPROCS=16
--------------------------------------------------------
>>>  Job started at Wed Jun 29 12:25:46 EDT 2022
--------------------------------------------------------
 running on   16 total cores
 distrk:  each k-point on   16 cores,    1 groups
 distr:  one band on    4 cores,    4 groups
 using from now: INCAR     
 vasp.5.4.4.18Apr17-6-g9f103f2a35 (build Dec 31 2018 11:41:54) complex          
  
 POSCAR found type information on POSCAR  O  Si Al Ag S  C  H 
 POSCAR found :  7 types and     120 ions
 scaLAPACK will be used
 LDA part: xc-table for Pade appr. of Perdew
 POSCAR found type information on POSCAR  O  Si Al Ag S  C  H 
 POSCAR found :  7 types and     120 ions
 POSCAR, INCAR and KPOINTS ok, starting setup
 FFT: planning ...
 WAVECAR not read
 WARNING: random wavefunctions but no delay for mixing, default for NELMDL
 entering main loop
       N       E                     dE             d eps       ncg     rms          rms(c)
DAV:   1     0.438794191921E+04    0.43879E+04   -0.26232E+05  1832   0.102E+03
DAV:   2    -0.434719179556E+03   -0.48227E+04   -0.46436E+04  2120   0.295E+02
DAV:   3    -0.948235817056E+03   -0.51352E+03   -0.50986E+03  2144   0.101E+02
DAV:   4    -0.958672679684E+03   -0.10437E+02   -0.10398E+02  2168   0.157E+01
DAV:   5    -0.958951849829E+03   -0.27917E+00   -0.27882E+00  2208   0.235E+00    0.893E+01
DAV:   6    -0.593803807107E+03    0.36515E+03   -0.76428E+02  2012   0.402E+01    0.299E+01
DAV:   7    -0.690223852598E+03   -0.96420E+02   -0.98102E+01  2080   0.136E+01    0.200E+01
DAV:   8    -0.759227517483E+03   -0.69004E+02   -0.30532E+01  2072   0.805E+00    0.120E+01
DAV:   9    -0.839945367856E+03   -0.80718E+02   -0.58821E+01  2044   0.919E+00    0.523E+00
DAV:  10    -0.857535809579E+03   -0.17590E+02   -0.10868E+01  2104   0.408E+00    0.369E+00
DAV:  11    -0.874014822970E+03   -0.16479E+02   -0.10907E+01  1940   0.393E+00    0.175E+00
DAV:  12    -0.877895868169E+03   -0.38810E+01   -0.22229E+00  1988   0.170E+00    0.937E-01
DAV:  13    -0.879103592581E+03   -0.12077E+01   -0.54513E-01  1936   0.910E-01    0.446E-01
DAV:  14    -0.879308892599E+03   -0.20530E+00   -0.82915E-02  1968   0.383E-01    0.262E-01
DAV:  15    -0.879329251518E+03   -0.20359E-01   -0.17608E-02  2032   0.257E-01    0.132E-01
DAV:  16    -0.879337788957E+03   -0.85374E-02   -0.60372E-03  2096   0.159E-01    0.874E-02
DAV:  17    -0.879346185083E+03   -0.83961E-02   -0.31552E-03  2032   0.115E-01    0.446E-02
DAV:  18    -0.879349181012E+03   -0.29959E-02   -0.16331E-03  2048   0.815E-02    0.432E-02
DAV:  19    -0.879349788501E+03   -0.60749E-03   -0.57143E-04  2080   0.521E-02    0.183E-02
DAV:  20    -0.879350456776E+03   -0.66828E-03   -0.44981E-04  2016   0.425E-02    0.214E-02
DAV:  21    -0.879350827979E+03   -0.37120E-03   -0.17521E-04  1920   0.282E-02    0.124E-02
DAV:  22    -0.879351003581E+03   -0.17560E-03   -0.11164E-04  1960   0.206E-02    0.834E-03
DAV:  23    -0.879351114714E+03   -0.11113E-03   -0.51303E-05  1776   0.145E-02    0.520E-03
DAV:  24    -0.879351139561E+03   -0.24848E-04   -0.24922E-05  1744   0.921E-03    0.207E-03
DAV:  25    -0.879351159829E+03   -0.20268E-04   -0.10478E-05  1568   0.569E-03    0.161E-03
DAV:  26    -0.879351173654E+03   -0.13825E-04   -0.58413E-06  1544   0.361E-03    0.136E-03
DAV:  27    -0.879351175739E+03   -0.20851E-05   -0.17824E-06  1528   0.204E-03
   1 F= -.87935118E+03 E0= -.87935118E+03  d E =-.879351E+03  mag=     0.0000
 BRION: g(F)=  0.172E+03 g(S)=  0.000E+00
 bond charge predicted
       N       E                     dE             d eps       ncg     rms          rms(c)
DAV:   1    -0.796572560738E+03    0.82779E+02   -0.35663E+03  1888   0.756E+01    0.166E+01
DAV:   2    -0.829017180702E+03   -0.32445E+02   -0.43608E+02  2216   0.224E+01    0.132E+01
DAV:   3    -0.826312582186E+03    0.27046E+01   -0.21401E+01  2176   0.596E+00    0.924E+00
DAV:   4    -0.824330040208E+03    0.19825E+01   -0.63478E+00  2152   0.364E+00    0.361E+00
DAV:   5    -0.824373661969E+03   -0.43622E-01   -0.17142E+00  2272   0.237E+00    0.241E+00
DAV:   6    -0.824300773399E+03    0.72889E-01   -0.35968E-01  2112   0.985E-01    0.129E+00
DAV:   7    -0.824307061796E+03   -0.62884E-02   -0.15430E-01  2112   0.791E-01    0.616E-01
DAV:   8    -0.824305586512E+03    0.14753E-02   -0.30111E-02  2144   0.375E-01    0.257E-01
DAV:   9    -0.824305062659E+03    0.52385E-03   -0.12927E-02  2288   0.339E-01    0.156E-01
DAV:  10    -0.824304672189E+03    0.39047E-03   -0.45102E-03  2168   0.174E-01    0.109E-01
DAV:  11    -0.824304120434E+03    0.55175E-03   -0.87952E-04  2224   0.140E-01    0.509E-02
DAV:  12    -0.824303958263E+03    0.16217E-03   -0.76182E-04  2400   0.161E-01    0.446E-02
DAV:  13    -0.824304149703E+03   -0.19144E-03   -0.11563E-03  2208   0.108E-01    0.284E-02
DAV:  14    -0.824304282744E+03   -0.13304E-03   -0.63396E-04  2144   0.458E-02    0.415E-02
DAV:  15    -0.824304296743E+03   -0.13999E-04   -0.29727E-05  1792   0.956E-03    0.371E-02
DAV:  16    -0.824304325102E+03   -0.28360E-04   -0.21605E-05  1480   0.808E-03    0.336E-02
DAV:  17    -0.824304331304E+03   -0.62019E-05   -0.54785E-06  1344   0.362E-03
   2 F= -.82430433E+03 E0= -.82430433E+03  d E =0.550468E+02  mag=    -0.0000
 BRION: g(F)=  0.302E+04 g(S)=  0.000E+00 retain N=  1 mean eig= 0.07
 eig:   0.071
 bond charge predicted
       N       E                     dE             d eps       ncg     rms          rms(c)
DAV:   1    -0.855222084055E+03   -0.30918E+02   -0.40613E+03  1904   0.438E+01    0.781E+00
DAV:   2    -0.872446552328E+03   -0.17224E+02   -0.18449E+02  1952   0.168E+01    0.544E+00
DAV:   3    -0.872000998307E+03    0.44555E+00   -0.33843E+00  2144   0.297E+00    0.345E+00
DAV:   4    -0.871706622455E+03    0.29438E+00   -0.81987E-01  2144   0.150E+00    0.158E+00
DAV:   5    -0.871663501373E+03    0.43121E-01   -0.31941E-01  2112   0.951E-01    0.807E-01
DAV:   6    -0.871650235776E+03    0.13266E-01   -0.35666E-02  2560   0.522E-01    0.400E-01
DAV:   7    -0.871646636784E+03    0.35990E-02   -0.25977E-02  2480   0.354E-01    0.147E-01
DAV:   8    -0.871646320067E+03    0.31672E-03   -0.51561E-03  2192   0.158E-01    0.756E-02
DAV:   9    -0.871646320685E+03   -0.61834E-06   -0.15931E-03  2408   0.112E-01    0.742E-02
DAV:  10    -0.871646247003E+03    0.73683E-04   -0.62773E-04  2432   0.620E-02    0.253E-02
DAV:  11    -0.871646321299E+03   -0.74296E-04   -0.20688E-04  2120   0.402E-02    0.265E-02
DAV:  12    -0.871646377726E+03   -0.56427E-04   -0.74264E-05  2088   0.259E-02    0.186E-02
DAV:  13    -0.871646441553E+03   -0.63827E-04   -0.88442E-05  2016   0.204E-02    0.909E-03
DAV:  14    -0.871646472355E+03   -0.30803E-04   -0.10111E-05  1584   0.746E-03    0.825E-03
DAV:  15    -0.871646490854E+03   -0.18499E-04   -0.47530E-06  1424   0.518E-03    0.476E-03
DAV:  16    -0.871646503702E+03   -0.12848E-04   -0.45234E-06  1480   0.394E-03    0.218E-03
DAV:  17    -0.871646512416E+03   -0.87138E-05   -0.18101E-06  1392   0.303E-03
   3 F= -.87164651E+03 E0= -.87164651E+03  d E =-.473422E+02  mag=     0.0000
 BRION: g(F)=  0.100E+03 g(S)=  0.000E+00 retain N=  1 mean eig= 0.08
 eig:   0.076
 bond charge predicted
       N       E                     dE             d eps       ncg     rms          rms(c)
DAV:   1    -0.802912872920E+03    0.68734E+02   -0.66696E+03  1856   0.108E+02    0.224E+01
DAV:   2    -0.880149222819E+03   -0.77236E+02   -0.73569E+02  2344   0.412E+01    0.235E+01
DAV:   3    -0.875679629839E+03    0.44696E+01   -0.14699E+02  2152   0.161E+01    0.154E+01
DAV:   4    -0.871644095077E+03    0.40355E+01   -0.11743E+01  2128   0.673E+00    0.948E+00
DAV:   5    -0.869231137024E+03    0.24130E+01   -0.14844E+01  2312   0.840E+00    0.899E+00
DAV:   6    -0.868635088973E+03    0.59605E+00   -0.22073E+00  2064   0.234E+00    0.691E+00
DAV:   7    -0.868389398516E+03    0.24569E+00   -0.64543E+00  2448   0.207E+00    0.452E+00
DAV:   8    -0.868043559103E+03    0.34584E+00   -0.71770E-01  2512   0.434E+00    0.114E+01
DAV:   9    -0.867767060467E+03    0.27650E+00   -0.51653E+00  1984   0.102E+00    0.330E+00
DAV:  10    -0.867855754665E+03   -0.88694E-01   -0.29854E+00  2416   0.208E+00    0.107E+01
DAV:  11    -0.867699182471E+03    0.15657E+00   -0.88518E-01  2208   0.749E-01    0.584E+00
DAV:  12    -0.867608878799E+03    0.90304E-01   -0.57171E-02  1968   0.492E-01    0.144E+00
DAV:  13    -0.867651620427E+03   -0.42742E-01   -0.58531E-02  2000   0.335E-01    0.310E+00
DAV:  14    -0.867645001714E+03    0.66187E-02   -0.95220E-01  2264   0.461E-01    0.241E+00
DAV:  15    -0.867649165098E+03   -0.41634E-02   -0.12942E-01  1912   0.254E-01    0.240E+00
DAV:  16    -0.867635310004E+03    0.13855E-01   -0.13540E-01  1912   0.232E-01    0.260E+00
DAV:  17    -0.867607533098E+03    0.27777E-01   -0.50144E-03  2168   0.275E-01    0.124E+00
DAV:  18    -0.867613372437E+03   -0.58393E-02   -0.29285E-03  1960   0.871E-02    0.111E+00
DAV:  19    -0.867610500180E+03    0.28723E-02   -0.80770E-04  2256   0.719E-02    0.743E-01
DAV:  20    -0.867612492064E+03   -0.19919E-02   -0.34436E-04  1840   0.342E-02    0.827E-01
DAV:  21    -0.867610454914E+03    0.20371E-02   -0.19093E-03  2224   0.167E-01    0.720E-01
DAV:  22    -0.867612622609E+03   -0.21677E-02   -0.21500E-03  2104   0.118E-01    0.733E-01
DAV:  23    -0.867612368501E+03    0.25411E-03   -0.36425E-03  2136   0.137E-01    0.414E-01
DAV:  24    -0.867613687887E+03   -0.13194E-02   -0.19855E-03  1960   0.866E-02    0.574E-01
DAV:  25    -0.867612527859E+03    0.11600E-02   -0.71903E-04  2128   0.657E-02    0.178E-01
DAV:  26    -0.867613331809E+03   -0.80395E-03   -0.27998E-04  1936   0.350E-02    0.854E-02
DAV:  27    -0.867613593322E+03   -0.26151E-03   -0.52026E-05  1840   0.161E-02    0.769E-02
DAV:  28    -0.867613662094E+03   -0.68772E-04   -0.30566E-05  1712   0.135E-02    0.228E-02
DAV:  29    -0.867613718752E+03   -0.56658E-04   -0.12149E-05  1472   0.756E-03    0.141E-02
DAV:  30    -0.867613747352E+03   -0.28600E-04   -0.53201E-06  1488   0.474E-03    0.685E-03
DAV:  31    -0.867613762727E+03   -0.15375E-04   -0.28089E-06  1472   0.348E-03    0.779E-03
DAV:  32    -0.867613771442E+03   -0.87148E-05   -0.15368E-06  1456   0.258E-03
   4 F= -.86761377E+03 E0= -.86759401E+03  d E =0.403274E+01  mag=     0.0000
 BRION: g(F)=  0.103E+03 g(S)=  0.000E+00 retain N=  2 mean eig= 0.16
 eig:   0.119  0.201
 bond charge predicted
       N       E                     dE             d eps       ncg     rms          rms(c)
DAV:   1    -0.867549286239E+03    0.64476E-01   -0.28170E+03  1776   0.839E+01    0.118E+01
DAV:   2    -0.879387046138E+03   -0.11838E+02   -0.17131E+02  2208   0.183E+01    0.107E+01
DAV:   3    -0.876449557412E+03    0.29375E+01   -0.63361E+00  2192   0.454E+00    0.759E+00
DAV:   4    -0.875461482612E+03    0.98807E+00   -0.50705E+00  2152   0.309E+00    0.512E+00
DAV:   5    -0.874991060056E+03    0.47042E+00   -0.36669E+00  2136   0.261E+00    0.438E+00
DAV:   6    -0.875565137612E+03   -0.57408E+00   -0.12312E+01  2320   0.203E+00    0.737E+00
DAV:   7    -0.874704357032E+03    0.86078E+00   -0.44084E-01  2528   0.168E+00    0.205E+00
DAV:   8    -0.874764958506E+03   -0.60601E-01   -0.11045E+00  2224   0.926E-01    0.252E+00
DAV:   9    -0.874704558860E+03    0.60400E-01   -0.11620E-01  2080   0.553E-01    0.203E+00
DAV:  10    -0.874667205830E+03    0.37353E-01   -0.13792E-01  2560   0.514E-01    0.830E-01
DAV:  11    -0.874668206195E+03   -0.10004E-02   -0.65700E-02  2248   0.414E-01    0.119E+00
DAV:  12    -0.874668749077E+03   -0.54288E-03   -0.15257E-02  1920   0.155E-01    0.129E+00
DAV:  13    -0.874661816739E+03    0.69323E-02   -0.70352E-02  2720   0.177E-01    0.612E-01
DAV:  14    -0.874661733194E+03    0.83546E-04   -0.93318E-03  2072   0.209E-01    0.339E-01
DAV:  15    -0.874663247641E+03   -0.15144E-02   -0.25215E-03  2016   0.609E-02    0.437E-01
DAV:  16    -0.874664351167E+03   -0.11035E-02   -0.81852E-03  2176   0.148E-01    0.770E-01
DAV:  17    -0.874664217672E+03    0.13350E-03   -0.19030E-03  2128   0.101E-01    0.756E-01
DAV:  18    -0.874662362130E+03    0.18555E-02   -0.33376E-03  2040   0.608E-02    0.495E-01
DAV:  19    -0.874662120520E+03    0.24161E-03   -0.42613E-03  2104   0.637E-02    0.209E-01
DAV:  20    -0.874662715292E+03   -0.59477E-03   -0.18501E-04  1944   0.239E-02    0.209E-01
DAV:  21    -0.874662621720E+03    0.93572E-04   -0.58718E-04  1976   0.298E-02    0.129E-01
DAV:  22    -0.874662877111E+03   -0.25539E-03   -0.36382E-03  2240   0.314E-02    0.253E-01
DAV:  23    -0.874662688885E+03    0.18823E-03   -0.19931E-03  2040   0.344E-02    0.329E-02
DAV:  24    -0.874662835484E+03   -0.14660E-03   -0.21779E-04  2072   0.274E-02    0.380E-02
DAV:  25    -0.874662876078E+03   -0.40594E-04   -0.19381E-04  1656   0.137E-02    0.415E-02
DAV:  26    -0.874662903246E+03   -0.27169E-04   -0.13528E-04  1440   0.117E-02    0.272E-02
DAV:  27    -0.874662914158E+03   -0.10911E-04   -0.39516E-05  1488   0.702E-03    0.820E-03
DAV:  28    -0.874662923256E+03   -0.90984E-05   -0.51902E-06  1416   0.470E-03
   5 F= -.87466292E+03 E0= -.87465407E+03  d E =-.704915E+01  mag=     0.0000
 BRION: g(F)=  0.532E+02 g(S)=  0.000E+00 retain N=  3 mean eig= 0.75
 eig:   1.952  0.092  0.208
 bond charge predicted
       N       E                     dE             d eps       ncg     rms          rms(c)
DAV:   1    -0.879689452972E+03   -0.50265E+01   -0.11304E+03  1776   0.545E+01    0.696E+00
DAV:   2    -0.883520852275E+03   -0.38314E+01   -0.56566E+01  2144   0.982E+00    0.906E+00
DAV:   3    -0.882160730031E+03    0.13601E+01   -0.13460E+00  2272   0.262E+00    0.519E+00
DAV:   4    -0.881679921199E+03    0.48081E+00   -0.29999E+00  2128   0.172E+00    0.558E+00
DAV:   5    -0.881753579356E+03   -0.73658E-01   -0.11559E+01  2176   0.253E+00    0.436E+00
DAV:   6    -0.881521051172E+03    0.23253E+00   -0.38800E-01  2112   0.126E+00    0.392E+00
DAV:   7    -0.881257296248E+03    0.26375E+00   -0.27373E-01  2192   0.861E-01    0.211E+00
DAV:   8    -0.881263913525E+03   -0.66173E-02   -0.83778E-01  2384   0.588E-01    0.342E+00
DAV:   9    -0.881233827400E+03    0.30086E-01   -0.57478E-01  2192   0.417E-01    0.109E+00
DAV:  10    -0.881239884859E+03   -0.60575E-02   -0.53911E-02  2160   0.317E-01    0.141E+00
DAV:  11    -0.881234914864E+03    0.49700E-02   -0.12792E-02  1896   0.103E-01    0.137E+00
DAV:  12    -0.881223305497E+03    0.11609E-01   -0.67114E-02  2216   0.316E-01    0.517E-01
DAV:  13    -0.881226012932E+03   -0.27074E-02   -0.25279E-03  1880   0.764E-02    0.533E-01
DAV:  14    -0.881225895717E+03    0.11722E-03   -0.10612E-03  2232   0.323E-02    0.460E-01
DAV:  15    -0.881232011200E+03   -0.61155E-02   -0.83315E-02  2752   0.236E-01    0.172E+00
DAV:  16    -0.881223658794E+03    0.83524E-02   -0.35255E-02  2144   0.175E-01    0.731E-01
DAV:  17    -0.881226097303E+03   -0.24385E-02   -0.44926E-02  2192   0.122E-01    0.701E-01
DAV:  18    -0.881225646989E+03    0.45031E-03   -0.45473E-03  1936   0.838E-02    0.319E-01
DAV:  19    -0.881226073231E+03   -0.42624E-03   -0.48802E-04  2136   0.302E-02    0.373E-01
DAV:  20    -0.881225895868E+03    0.17736E-03   -0.79178E-04  1792   0.238E-02    0.196E-01
DAV:  21    -0.881226074769E+03   -0.17890E-03   -0.54982E-04  1952   0.243E-02    0.583E-02
DAV:  22    -0.881226188652E+03   -0.11388E-03   -0.21011E-04  1936   0.128E-02    0.370E-02
DAV:  23    -0.881226247672E+03   -0.59020E-04   -0.28374E-05  1400   0.734E-03    0.603E-02
DAV:  24    -0.881226256207E+03   -0.85342E-05   -0.66251E-06  1424   0.639E-03
   6 F= -.88122626E+03 E0= -.88121298E+03  d E =-.656333E+01  mag=    -0.0001
 BRION: g(F)=  0.211E+02 g(S)=  0.000E+00 retain N=  4 mean eig= 1.40
 eig:   4.808  0.102  0.154  0.526
 bond charge predicted
       N       E                     dE             d eps       ncg     rms          rms(c)
DAV:   1    -0.885163041576E+03   -0.39368E+01   -0.27716E+02  1744   0.259E+01    0.451E+00
DAV:   2    -0.887051270426E+03   -0.18882E+01   -0.28797E+01  2128   0.477E+00    0.828E+00
DAV:   3    -0.885413616049E+03    0.16377E+01   -0.61180E-01  2192   0.190E+00    0.243E+00
DAV:   4    -0.885344206457E+03    0.69410E-01   -0.10794E+00  2128   0.109E+00    0.276E+00
DAV:   5    -0.885581178202E+03   -0.23697E+00   -0.53197E+00  2368   0.127E+00    0.637E+00
DAV:   6    -0.885290796599E+03    0.29038E+00   -0.38121E+00  2368   0.102E+00    0.278E+00
DAV:   7    -0.885233155181E+03    0.57641E-01   -0.23919E-01  2056   0.468E-01    0.977E-01
DAV:   8    -0.885239067105E+03   -0.59119E-02   -0.26174E-01  2368   0.298E-01    0.182E+00
DAV:   9    -0.885229953252E+03    0.91139E-02   -0.53791E-02  1928   0.146E-01    0.126E+00
DAV:  10    -0.885226736320E+03    0.32169E-02   -0.78756E-03  1856   0.551E-02    0.926E-01
DAV:  11    -0.885223925916E+03    0.28104E-02   -0.16571E-02  2232   0.220E-01    0.884E-01
DAV:  12    -0.885224990819E+03   -0.10649E-02   -0.11947E-01  2408   0.198E-01    0.904E-01
DAV:  13    -0.885221564214E+03    0.34266E-02   -0.32315E-02  2152   0.155E-01    0.736E-02
DAV:  14    -0.885222272469E+03   -0.70826E-03   -0.20929E-03  2104   0.796E-02    0.197E-01
DAV:  15    -0.885222746611E+03   -0.47414E-03   -0.12549E-03  2096   0.375E-02    0.365E-01
DAV:  16    -0.885222399332E+03    0.34728E-03   -0.11843E-02  2184   0.441E-02    0.209E-01
DAV:  17    -0.885222438396E+03   -0.39064E-04   -0.98332E-04  2080   0.231E-02    0.551E-02
DAV:  18    -0.885222486493E+03   -0.48097E-04   -0.30440E-05  1824   0.102E-02    0.466E-02
DAV:  19    -0.885222521131E+03   -0.34638E-04   -0.33964E-04  1456   0.780E-03    0.510E-02
DAV:  20    -0.885222533970E+03   -0.12838E-04   -0.90463E-05  1472   0.735E-03    0.487E-03
DAV:  21    -0.885222551659E+03   -0.17689E-04   -0.55730E-06  1408   0.363E-03    0.118E-02
DAV:  22    -0.885222557337E+03   -0.56780E-05   -0.28068E-06  1496   0.224E-03
   7 F= -.88522256E+03 E0= -.88522054E+03  d E =-.399630E+01  mag=    -0.0030
 BRION: g(F)=  0.626E+01 g(S)=  0.000E+00 retain N=  2 mean eig= 0.99
 eig:   0.171  1.806
 bond charge predicted
       N       E                     dE             d eps       ncg     rms          rms(c)
DAV:   1    -0.885520753189E+03   -0.29820E+00   -0.64879E+02  1744   0.382E+01    0.577E+00
DAV:   2    -0.887626893229E+03   -0.21061E+01   -0.29654E+01  2128   0.621E+00    0.856E+00
DAV:   3    -0.886815310616E+03    0.81158E+00   -0.59625E+00  2224   0.180E+00    0.433E+00
DAV:   4    -0.886538181854E+03    0.27713E+00   -0.58827E-01  2176   0.121E+00    0.234E+00
DAV:   5    -0.886460643728E+03    0.77538E-01   -0.76542E-01  2416   0.140E+00    0.158E+00
DAV:   6    -0.886463177765E+03   -0.25340E-02   -0.68213E-01  2160   0.639E-01    0.129E+00
DAV:   7    -0.886447734644E+03    0.15443E-01   -0.23419E-01  2096   0.278E-01    0.606E-01
DAV:   8    -0.886444387023E+03    0.33476E-02   -0.36707E-02  2280   0.150E-01    0.237E-01
DAV:   9    -0.886446760948E+03   -0.23739E-02   -0.38215E-02  2240   0.139E-01    0.659E-01
DAV:  10    -0.886442504355E+03    0.42566E-02   -0.30579E-02  1968   0.781E-02    0.356E-01
DAV:  11    -0.886441389163E+03    0.11152E-02   -0.96523E-03  2280   0.148E-01    0.998E-02
DAV:  12    -0.886441838392E+03   -0.44923E-03   -0.52219E-03  2224   0.128E-01    0.182E-01
DAV:  13    -0.886441863651E+03   -0.25259E-04   -0.17120E-03  2176   0.855E-02    0.759E-02
DAV:  14    -0.886441968179E+03   -0.10453E-03   -0.35035E-04  2080   0.322E-02    0.388E-02
DAV:  15    -0.886442044930E+03   -0.76751E-04   -0.27598E-04  1936   0.160E-02    0.315E-02
DAV:  16    -0.886442092375E+03   -0.47445E-04   -0.63145E-05  1552   0.950E-03    0.929E-03
DAV:  17    -0.886442110936E+03   -0.18561E-04   -0.14379E-05  1480   0.673E-03    0.492E-03
DAV:  18    -0.886442124833E+03   -0.13897E-04   -0.53984E-06  1408   0.585E-03    0.674E-03
DAV:  19    -0.886442129391E+03   -0.45585E-05   -0.29597E-06  1464   0.274E-03
   8 F= -.88644213E+03 E0= -.88644213E+03  d E =-.121957E+01  mag=     0.0000
 BRION: g(F)=  0.296E+02 g(S)=  0.000E+00 retain N=  3 mean eig= 0.72
 eig:   1.782  0.107  0.272
 bond charge predicted
       N       E                     dE             d eps       ncg     rms          rms(c)
DAV:   1    -0.888319584513E+03   -0.18775E+01   -0.17488E+02  1792   0.199E+01    0.319E+00
DAV:   2    -0.888787753445E+03   -0.46817E+00   -0.75452E+00  2144   0.340E+00    0.442E+00
DAV:   3    -0.888696591682E+03    0.91162E-01   -0.20502E+00  2264   0.831E-01    0.281E+00
DAV:   4    -0.888566019189E+03    0.13057E+00   -0.32497E-01  2136   0.771E-01    0.131E+00
DAV:   5    -0.888533337411E+03    0.32682E-01   -0.15712E-01  2192   0.883E-01    0.669E-01
DAV:   6    -0.888530910170E+03    0.24272E-02   -0.66082E-02  2224   0.408E-01    0.245E-01
DAV:   7    -0.888529324760E+03    0.15854E-02   -0.52669E-03  2080   0.130E-01    0.163E-01
DAV:   8    -0.888530109288E+03   -0.78453E-03   -0.23666E-02  2320   0.135E-01    0.465E-01
DAV:   9    -0.888527119309E+03    0.29900E-02   -0.19074E-02  1896   0.550E-02    0.164E-01
DAV:  10    -0.888526036396E+03    0.10829E-02   -0.51273E-03  2312   0.142E-01    0.604E-02
DAV:  11    -0.888525826755E+03    0.20964E-03   -0.10970E-03  2360   0.121E-01    0.461E-02
DAV:  12    -0.888525826499E+03    0.25641E-06   -0.88459E-04  2472   0.982E-02    0.316E-02
DAV:  13    -0.888525877746E+03   -0.51248E-04   -0.35172E-04  2088   0.342E-02    0.318E-02
DAV:  14    -0.888525886360E+03   -0.86132E-05   -0.80398E-05  2120   0.162E-02
   9 F= -.88852589E+03 E0= -.88852589E+03  d E =-.208376E+01  mag=    -0.0000
 BRION: g(F)=  0.615E+01 g(S)=  0.000E+00 retain N=  1 mean eig= 0.18
 eig:   0.178
 bond charge predicted
       N       E                     dE             d eps       ncg     rms          rms(c)
DAV:   1    -0.889768995077E+03   -0.12431E+01   -0.25967E+02  1744   0.242E+01    0.434E+00
DAV:   2    -0.890530599681E+03   -0.76160E+00   -0.14640E+01  2160   0.395E+00    0.694E+00
DAV:   3    -0.890053231840E+03    0.47737E+00   -0.33195E+00  2256   0.156E+00    0.249E+00
DAV:   4    -0.889959512225E+03    0.93720E-01   -0.28900E-01  2064   0.751E-01    0.115E+00
DAV:   5    -0.889945554357E+03    0.13958E-01   -0.18651E-01  2272   0.647E-01    0.678E-01
DAV:   6    -0.889942289708E+03    0.32646E-02   -0.49503E-02  2128   0.276E-01    0.188E-01
DAV:   7    -0.889941968255E+03    0.32145E-03   -0.42047E-03  2080   0.115E-01    0.120E-01
DAV:   8    -0.889941634629E+03    0.33363E-03   -0.22128E-03  2320   0.804E-02    0.805E-02
DAV:   9    -0.889941590639E+03    0.43990E-04   -0.16473E-03  2112   0.665E-02    0.773E-02
DAV:  10    -0.889941612146E+03   -0.21507E-04   -0.24996E-04  2024   0.256E-02    0.810E-02
DAV:  11    -0.889941584693E+03    0.27454E-04   -0.13955E-05  1464   0.645E-03    0.753E-02
DAV:  12    -0.889941588750E+03   -0.40574E-05   -0.26259E-03  2200   0.742E-02    0.103E-01
DAV:  13    -0.889941745368E+03   -0.15662E-03   -0.47986E-04  2136   0.402E-02    0.148E-01
DAV:  14    -0.889941806171E+03   -0.60803E-04   -0.52666E-05  1888   0.388E-02    0.164E-01
DAV:  15    -0.889941818793E+03   -0.12622E-04   -0.68319E-05  1976   0.218E-02    0.167E-01
DAV:  16    -0.889941654564E+03    0.16423E-03   -0.18178E-04  2096   0.319E-02    0.130E-01
DAV:  17    -0.889941608062E+03    0.46502E-04   -0.52263E-05  2056   0.131E-02    0.113E-01
DAV:  18    -0.889941548791E+03    0.59272E-04   -0.30071E-05  1728   0.135E-02    0.954E-02
DAV:  19    -0.889941472684E+03    0.76107E-04   -0.11961E-04  2096   0.229E-02    0.592E-02
DAV:  20    -0.889941446739E+03    0.25945E-04   -0.42673E-05  2104   0.130E-02    0.388E-02
DAV:  21    -0.889941432432E+03    0.14307E-04   -0.19981E-05  1544   0.973E-03    0.234E-02
DAV:  22    -0.889941427461E+03    0.49709E-05   -0.21050E-05  1584   0.887E-03
  10 F= -.88994143E+03 E0= -.88994143E+03  d E =-.141554E+01  mag=    -0.0000
 BRION: g(F)=  0.707E+01 g(S)=  0.000E+00 retain N=  2 mean eig= 0.12
 eig:   0.120  0.120
 bond charge predicted
       N       E                     dE             d eps       ncg     rms          rms(c)
DAV:   1    -0.891144732399E+03   -0.12033E+01   -0.83147E+01  1744   0.143E+01    0.229E+00
DAV:   2    -0.891400632372E+03   -0.25590E+00   -0.43446E+00  2176   0.253E+00    0.286E+00
DAV:   3    -0.891231900496E+03    0.16873E+00   -0.48773E-01  2240   0.810E-01    0.130E+00
DAV:   4    -0.891192755564E+03    0.39145E-01   -0.10369E-01  2144   0.596E-01    0.598E-01
DAV:   5    -0.891182508140E+03    0.10247E-01   -0.58254E-02  2232   0.579E-01    0.327E-01
DAV:   6    -0.891181850193E+03    0.65795E-03   -0.41369E-02  2224   0.279E-01    0.276E-01
DAV:   7    -0.891180380234E+03    0.14700E-02   -0.11821E-02  2112   0.109E-01    0.142E-01
DAV:   8    -0.891179953662E+03    0.42657E-03   -0.77017E-03  2280   0.129E-01    0.159E-01
DAV:   9    -0.891180273925E+03   -0.32026E-03   -0.93354E-04  2096   0.378E-02    0.185E-01
DAV:  10    -0.891179507546E+03    0.76638E-03   -0.27179E-03  2096   0.412E-02    0.141E-01
DAV:  11    -0.891178805838E+03    0.70171E-03   -0.59710E-03  2128   0.791E-02    0.687E-02
DAV:  12    -0.891178911008E+03   -0.10517E-03   -0.75807E-04  2088   0.633E-02    0.263E-02
DAV:  13    -0.891178989831E+03   -0.78824E-04   -0.14066E-04  2240   0.483E-02    0.280E-02
DAV:  14    -0.891179011893E+03   -0.22062E-04   -0.11048E-04  2264   0.345E-02    0.131E-02
DAV:  15    -0.891179035371E+03   -0.23477E-04   -0.66148E-05  2048   0.134E-02    0.924E-03
DAV:  16    -0.891179055430E+03   -0.20060E-04   -0.83749E-06  1392   0.623E-03    0.517E-03
DAV:  17    -0.891179065812E+03   -0.10381E-04   -0.90158E-06  1504   0.450E-03    0.354E-03
DAV:  18    -0.891179071038E+03   -0.52263E-05   -0.16290E-06  1424   0.296E-03
  11 F= -.89117907E+03 E0= -.89117907E+03  d E =-.123764E+01  mag=    -0.0000
 BRION: g(F)=  0.288E+01 g(S)=  0.000E+00 retain N=  3 mean eig= 2.41
 eig:   6.723  0.252  0.252
 bond charge predicted
       N       E                     dE             d eps       ncg     rms          rms(c)
DAV:   1    -0.891886266891E+03   -0.70720E+00   -0.26548E+01  1744   0.785E+00    0.102E+00
DAV:   2    -0.891930159000E+03   -0.43892E-01   -0.67750E-01  2128   0.116E+00    0.885E-01
DAV:   3    -0.891919827850E+03    0.10331E-01   -0.70518E-02  2376   0.310E-01    0.572E-01
DAV:   4    -0.891912464834E+03    0.73630E-02   -0.24156E-02  2144   0.240E-01    0.326E-01
DAV:   5    -0.891909554756E+03    0.29101E-02   -0.11394E-02  2320   0.251E-01    0.827E-02
DAV:   6    -0.891909400137E+03    0.15462E-03   -0.41391E-03  2128   0.141E-01    0.730E-02
DAV:   7    -0.891909129448E+03    0.27069E-03   -0.49744E-04  2104   0.587E-02    0.500E-02
DAV:   8    -0.891908958121E+03    0.17133E-03   -0.18882E-04  2192   0.469E-02    0.343E-02
DAV:   9    -0.891908973989E+03   -0.15868E-04   -0.60698E-04  2112   0.367E-02    0.488E-02
DAV:  10    -0.891908897964E+03    0.76025E-04   -0.43165E-04  2000   0.173E-02    0.355E-02
DAV:  11    -0.891908857120E+03    0.40844E-04   -0.21190E-04  1704   0.124E-02    0.193E-02
DAV:  12    -0.891908855860E+03    0.12604E-05   -0.13006E-04  1896   0.255E-02    0.172E-02
DAV:  13    -0.891908859135E+03   -0.32746E-05   -0.29161E-05  1512   0.173E-02
  12 F= -.89190886E+03 E0= -.89190886E+03  d E =-.729788E+00  mag=     0.0000
 BRION: g(F)=  0.197E+01 g(S)=  0.000E+00 retain N=  2 mean eig= 0.99
 eig:   0.171  1.813
 bond charge predicted
       N       E                     dE             d eps       ncg     rms          rms(c)
DAV:   1    -0.893109726665E+03   -0.12009E+01   -0.14419E+02  1744   0.170E+01    0.227E+00
DAV:   2    -0.893414489185E+03   -0.30476E+00   -0.36797E+00  2096   0.234E+00    0.175E+00
DAV:   3    -0.893377809120E+03    0.36680E-01   -0.14422E-01  2304   0.545E-01    0.108E+00
DAV:   4    -0.893362789759E+03    0.15019E-01   -0.47753E-02  2112   0.392E-01    0.558E-01
DAV:   5    -0.893360489992E+03    0.22998E-02   -0.25903E-02  2384   0.339E-01    0.168E-01
DAV:   6    -0.893360074432E+03    0.41556E-03   -0.62234E-03  2112   0.163E-01    0.935E-02
DAV:   7    -0.893359889919E+03    0.18451E-03   -0.10154E-03  2160   0.580E-02    0.656E-02
DAV:   8    -0.893359688581E+03    0.20134E-03   -0.21990E-04  2096   0.484E-02    0.258E-02
DAV:   9    -0.893359585502E+03    0.10308E-03   -0.14977E-04  2320   0.510E-02    0.228E-02
DAV:  10    -0.893359548503E+03    0.36999E-04   -0.10528E-04  2208   0.463E-02    0.118E-02
DAV:  11    -0.893359554867E+03   -0.63636E-05   -0.96446E-05  2160   0.289E-02
  13 F= -.89335955E+03 E0= -.89335955E+03  d E =-.145070E+01  mag=     0.0000
 BRION: g(F)=  0.269E+01 g(S)=  0.000E+00 retain N=  3 mean eig= 0.95
 eig:   2.351  0.074  0.410
 bond charge predicted
       N       E                     dE             d eps       ncg     rms          rms(c)
DAV:   1    -0.894036122926E+03   -0.67657E+00   -0.45376E+01  1744   0.972E+00    0.136E+00
DAV:   2    -0.894140449942E+03   -0.10433E+00   -0.13533E+00  2128   0.142E+00    0.100E+00
DAV:   3    -0.894127538174E+03    0.12912E-01   -0.33912E-02  2136   0.326E-01    0.618E-01
DAV:   4    -0.894121646903E+03    0.58913E-02   -0.16975E-02  2208   0.312E-01    0.232E-01
DAV:   5    -0.894121041712E+03    0.60519E-03   -0.85153E-03  2256   0.169E-01    0.108E-01
DAV:   6    -0.894120703940E+03    0.33777E-03   -0.13488E-03  2288   0.886E-02    0.627E-02
DAV:   7    -0.894120415059E+03    0.28888E-03   -0.28709E-04  2224   0.537E-02    0.359E-02
DAV:   8    -0.894120240748E+03    0.17431E-03   -0.12677E-04  2288   0.570E-02    0.187E-02
DAV:   9    -0.894120165379E+03    0.75370E-04   -0.15879E-04  2368   0.578E-02    0.165E-02
DAV:  10    -0.894120163591E+03    0.17874E-05   -0.13733E-04  2112   0.307E-02    0.126E-02
DAV:  11    -0.894120166054E+03   -0.24624E-05   -0.27758E-05  1808   0.959E-03
  14 F= -.89412017E+03 E0= -.89412017E+03  d E =-.760611E+00  mag=    -0.0000
 BRION: g(F)=  0.169E+01 g(S)=  0.000E+00 retain N=  4 mean eig= 1.88
 eig:   3.506  3.506  0.246  0.246
 bond charge predicted
       N       E                     dE             d eps       ncg     rms          rms(c)
DAV:   1    -0.894978188949E+03   -0.85803E+00   -0.15350E+02  1744   0.169E+01    0.230E+00
DAV:   2    -0.895415124530E+03   -0.43694E+00   -0.50528E+00  2112   0.244E+00    0.157E+00
DAV:   3    -0.895395510903E+03    0.19614E-01   -0.12119E-01  2128   0.454E-01    0.100E+00
DAV:   4    -0.895386150817E+03    0.93601E-02   -0.57693E-02  2096   0.394E-01    0.284E-01
DAV:   5    -0.895386901772E+03   -0.75096E-03   -0.13446E-02  2192   0.191E-01    0.172E-01
DAV:   6    -0.895386556847E+03    0.34493E-03   -0.43958E-03  2144   0.130E-01    0.859E-02
DAV:   7    -0.895386469613E+03    0.87234E-04   -0.56388E-04  2144   0.448E-02    0.546E-02
DAV:   8    -0.895386402680E+03    0.66933E-04   -0.36726E-04  2048   0.440E-02    0.174E-02
DAV:   9    -0.895386398711E+03    0.39682E-05   -0.94763E-05  2112   0.228E-02
  15 F= -.89538640E+03 E0= -.89538640E+03  d E =-.126623E+01  mag=    -0.0000
 BRION: g(F)=  0.128E+01 g(S)=  0.000E+00 retain N=  5 mean eig= 1.96
 eig:   4.403  4.403  0.214  0.142  0.634
 bond charge predicted
       N       E                     dE             d eps       ncg     rms          rms(c)
DAV:   1    -0.895990748832E+03   -0.60435E+00   -0.48341E+01  1744   0.941E+00    0.150E+00
DAV:   2    -0.896096064290E+03   -0.10532E+00   -0.14856E+00  2112   0.144E+00    0.896E-01
DAV:   3    -0.896090281212E+03    0.57831E-02   -0.47951E-02  2144   0.305E-01    0.548E-01
DAV:   4    -0.896087485417E+03    0.27958E-02   -0.18710E-02  2112   0.238E-01    0.136E-01
DAV:   5    -0.896087580867E+03   -0.95450E-04   -0.40719E-03  2112   0.112E-01    0.896E-02
DAV:   6    -0.896087467893E+03    0.11297E-03   -0.87645E-04  2112   0.515E-02    0.461E-02
DAV:   7    -0.896087430813E+03    0.37081E-04   -0.12405E-04  2192   0.243E-02    0.189E-02
DAV:   8    -0.896087414701E+03    0.16112E-04   -0.43395E-05  1952   0.221E-02    0.896E-03
DAV:   9    -0.896087410461E+03    0.42401E-05   -0.20195E-05  1568   0.134E-02
  16 F= -.89608741E+03 E0= -.89608741E+03  d E =-.701012E+00  mag=     0.0000
 BRION: g(F)=  0.883E+00 g(S)=  0.000E+00 retain N=  6 mean eig= 2.24
 eig:   5.123  5.123  2.389  0.138  0.503  0.192
 bond charge predicted
       N       E                     dE             d eps       ncg     rms          rms(c)
DAV:   1    -0.896664479446E+03   -0.57706E+00   -0.66663E+01  1744   0.108E+01    0.166E+00
DAV:   2    -0.896808104299E+03   -0.14362E+00   -0.19060E+00  2072   0.168E+00    0.993E-01
DAV:   3    -0.896799958954E+03    0.81453E-02   -0.55419E-02  2144   0.345E-01    0.554E-01
DAV:   4    -0.896797499794E+03    0.24592E-02   -0.16596E-02  2144   0.234E-01    0.159E-01
DAV:   5    -0.896797558423E+03   -0.58629E-04   -0.36594E-03  2128   0.122E-01    0.820E-02
DAV:   6    -0.896797455878E+03    0.10255E-03   -0.97348E-04  2144   0.562E-02    0.492E-02
DAV:   7    -0.896797388415E+03    0.67463E-04   -0.10619E-04  2192   0.295E-02    0.236E-02
DAV:   8    -0.896797343998E+03    0.44417E-04   -0.58916E-05  1936   0.313E-02    0.114E-02
DAV:   9    -0.896797333040E+03    0.10958E-04   -0.36426E-05  1792   0.257E-02    0.723E-03
DAV:  10    -0.896797337913E+03   -0.48728E-05   -0.34231E-05  1824   0.159E-02
  17 F= -.89679734E+03 E0= -.89679734E+03  d E =-.709927E+00  mag=     0.0000
 BRION: g(F)=  0.901E+00 g(S)=  0.000E+00 retain N=  7 mean eig= 2.73
 eig:   7.256  7.256  2.607  0.717  0.549  0.549  0.187
 bond charge predicted
       N       E                     dE             d eps       ncg     rms          rms(c)
DAV:   1    -0.897271176787E+03   -0.47384E+00   -0.67160E+01  1744   0.111E+01    0.165E+00
DAV:   2    -0.897419636058E+03   -0.14846E+00   -0.19788E+00  2088   0.176E+00    0.102E+00
DAV:   3    -0.897406981369E+03    0.12655E-01   -0.62214E-02  2176   0.383E-01    0.526E-01
DAV:   4    -0.897403813515E+03    0.31679E-02   -0.14238E-02  2192   0.245E-01    0.173E-01
DAV:   5    -0.897403587732E+03    0.22578E-03   -0.35727E-03  2256   0.148E-01    0.722E-02
DAV:   6    -0.897403392095E+03    0.19564E-03   -0.10554E-03  2192   0.705E-02    0.494E-02
DAV:   7    -0.897403258846E+03    0.13325E-03   -0.15786E-04  2320   0.399E-02    0.222E-02
DAV:   8    -0.897403180783E+03    0.78063E-04   -0.65891E-05  2160   0.412E-02    0.136E-02
DAV:   9    -0.897403157713E+03    0.23070E-04   -0.70492E-05  2096   0.430E-02    0.993E-03
DAV:  10    -0.897403169683E+03   -0.11971E-04   -0.10236E-04  2064   0.227E-02    0.133E-02
DAV:  11    -0.897403168734E+03    0.94947E-06   -0.11422E-05  1568   0.644E-03
  18 F= -.89740317E+03 E0= -.89740317E+03  d E =-.605831E+00  mag=    -0.0000
 BRION: g(F)=  0.735E+00 g(S)=  0.000E+00 retain N=  5 mean eig= 2.24
 eig:   4.597  4.597  0.431  0.799  0.799
 bond charge predicted
       N       E                     dE             d eps       ncg     rms          rms(c)
DAV:   1    -0.897487115348E+03   -0.83946E-01   -0.25310E+01  1744   0.802E+00    0.106E+00
DAV:   2    -0.897519564709E+03   -0.32449E-01   -0.66658E-01  2144   0.131E+00    0.807E-01
DAV:   3    -0.897504710814E+03    0.14854E-01   -0.27686E-02  2192   0.380E-01    0.480E-01
DAV:   4    -0.897497027136E+03    0.76837E-02   -0.15974E-02  2192   0.342E-01    0.153E-01
DAV:   5    -0.897495986637E+03    0.10405E-02   -0.74853E-03  2320   0.225E-01    0.101E-01
DAV:   6    -0.897495494840E+03    0.49180E-03   -0.26718E-03  2160   0.123E-01    0.727E-02
DAV:   7    -0.897495150523E+03    0.34432E-03   -0.29546E-04  2192   0.665E-02    0.425E-02
DAV:   8    -0.897494880430E+03    0.27009E-03   -0.34995E-04  2272   0.999E-02    0.289E-02
DAV:   9    -0.897494877017E+03    0.34139E-05   -0.31583E-04  2096   0.509E-02    0.256E-02
DAV:  10    -0.897494900404E+03   -0.23388E-04   -0.21026E-04  1968   0.276E-02    0.148E-02
DAV:  11    -0.897494922721E+03   -0.22316E-04   -0.48452E-05  1792   0.190E-02    0.806E-03
DAV:  12    -0.897494926158E+03   -0.34376E-05   -0.31113E-05  1600   0.128E-02
  19 F= -.89749493E+03 E0= -.89749493E+03  d E =-.917574E-01  mag=     0.0000
 BRION: g(F)=  0.128E+01 g(S)=  0.000E+00 retain N=  6 mean eig= 2.43
 eig:   6.752  4.766  1.151  0.742  0.742  0.456
 bond charge predicted
       N       E                     dE             d eps       ncg     rms          rms(c)
DAV:   1    -0.897806774823E+03   -0.31185E+00   -0.72993E+01  1744   0.119E+01    0.182E+00
DAV:   2    -0.897948792805E+03   -0.14202E+00   -0.20904E+00  2064   0.185E+00    0.119E+00
DAV:   3    -0.897925916031E+03    0.22877E-01   -0.80872E-02  2176   0.452E-01    0.560E-01
DAV:   4    -0.897921548273E+03    0.43678E-02   -0.18462E-02  2128   0.279E-01    0.192E-01
DAV:   5    -0.897920765070E+03    0.78320E-03   -0.43414E-03  2256   0.188E-01    0.725E-02
DAV:   6    -0.897920609821E+03    0.15525E-03   -0.18334E-03  2104   0.869E-02    0.647E-02
DAV:   7    -0.897920457224E+03    0.15260E-03   -0.23569E-04  2000   0.335E-02    0.333E-02
DAV:   8    -0.897920314251E+03    0.14297E-03   -0.20315E-04  2160   0.577E-02    0.244E-02
DAV:   9    -0.897920342723E+03   -0.28473E-04   -0.21568E-04  1928   0.497E-02    0.144E-02
DAV:  10    -0.897920357051E+03   -0.14328E-04   -0.33381E-04  1856   0.428E-02    0.198E-02
DAV:  11    -0.897920356389E+03    0.66162E-06   -0.18652E-04  1856   0.285E-02    0.118E-02
DAV:  12    -0.897920347272E+03    0.91174E-05   -0.12699E-04  1768   0.212E-02    0.696E-03
DAV:  13    -0.897920338526E+03    0.87462E-05   -0.44617E-05  1704   0.133E-02
  20 F= -.89792034E+03 E0= -.89792034E+03  d E =-.425412E+00  mag=    -0.0000
 BRION: g(F)=  0.447E+00 g(S)=  0.000E+00 retain N=  6 mean eig= 2.87
 eig:   6.176  6.176  1.558  1.558  0.863  0.863
 bond charge predicted
       N       E                     dE             d eps       ncg     rms          rms(c)
DAV:   1    -0.897946964308E+03   -0.26617E-01   -0.12747E+01  1744   0.544E+00    0.676E-01
DAV:   2    -0.897968657073E+03   -0.21693E-01   -0.34142E-01  2128   0.837E-01    0.529E-01
DAV:   3    -0.897963260940E+03    0.53961E-02   -0.10635E-02  2208   0.204E-01    0.326E-01
DAV:   4    -0.897960172800E+03    0.30881E-02   -0.70931E-03  2112   0.205E-01    0.903E-02
DAV:   5    -0.897960115212E+03    0.57588E-04   -0.32363E-03  2216   0.117E-01    0.621E-02
DAV:   6    -0.897959995457E+03    0.11976E-03   -0.68129E-04  2128   0.569E-02    0.355E-02
DAV:   7    -0.897959908747E+03    0.86711E-04   -0.39554E-05  1968   0.322E-02    0.232E-02
DAV:   8    -0.897959837367E+03    0.71379E-04   -0.91618E-05  2112   0.477E-02    0.957E-03
DAV:   9    -0.897959842497E+03   -0.51294E-05   -0.94707E-05  1920   0.245E-02
  21 F= -.89795984E+03 E0= -.89795984E+03  d E =-.395040E-01  mag=    -0.0000
 BRION: g(F)=  0.414E+00 g(S)=  0.000E+00 retain N=  6 mean eig= 2.75
 eig:   7.045  7.045  0.891  0.891  0.545  0.078
 bond charge predicted
       N       E                     dE             d eps       ncg     rms          rms(c)
DAV:   1    -0.897996446731E+03   -0.36609E-01   -0.49326E+00  1760   0.312E+00    0.525E-01
DAV:   2    -0.898007457622E+03   -0.11011E-01   -0.16586E-01  2128   0.507E-01    0.403E-01
DAV:   3    -0.898005044090E+03    0.24135E-02   -0.59854E-03  2200   0.132E-01    0.220E-01
DAV:   4    -0.898004289970E+03    0.75412E-03   -0.23111E-03  2144   0.967E-02    0.554E-02
DAV:   5    -0.898004263677E+03    0.26293E-04   -0.63251E-04  2160   0.566E-02    0.266E-02
DAV:   6    -0.898004246332E+03    0.17345E-04   -0.14799E-04  1984   0.242E-02    0.193E-02
DAV:   7    -0.898004233611E+03    0.12721E-04   -0.27773E-05  1552   0.152E-02    0.102E-02
DAV:   8    -0.898004238943E+03   -0.53317E-05   -0.74830E-05  1616   0.252E-02
  22 F= -.89800424E+03 E0= -.89800424E+03  d E =-.443964E-01  mag=    -0.0000
 BRION: g(F)=  0.250E+00 g(S)=  0.000E+00 retain N=  3 mean eig= 0.90
 eig:   0.384  0.384  1.920
 bond charge predicted
       N       E                     dE             d eps       ncg     rms          rms(c)
DAV:   1    -0.898080929297E+03   -0.76696E-01   -0.96083E+00  1744   0.442E+00    0.601E-01
DAV:   2    -0.898096828495E+03   -0.15899E-01   -0.22102E-01  2096   0.608E-01    0.417E-01
DAV:   3    -0.898094156834E+03    0.26717E-02   -0.65949E-03  2128   0.137E-01    0.218E-01
DAV:   4    -0.898093539494E+03    0.61734E-03   -0.35928E-03  2088   0.114E-01    0.555E-02
DAV:   5    -0.898093533273E+03    0.62217E-05   -0.90291E-04  1864   0.610E-02    0.328E-02
DAV:   6    -0.898093497366E+03    0.35906E-04   -0.27695E-04  1824   0.346E-02    0.205E-02
DAV:   7    -0.898093510954E+03   -0.13587E-04   -0.15677E-04  1744   0.264E-02    0.124E-02
DAV:   8    -0.898093531425E+03   -0.20472E-04   -0.26989E-04  1680   0.350E-02    0.730E-03
DAV:   9    -0.898093472780E+03    0.58645E-04   -0.20457E-04  1688   0.263E-02    0.729E-03
DAV:  10    -0.898093458403E+03    0.14377E-04   -0.85597E-05  1600   0.184E-02    0.439E-03
DAV:  11    -0.898093451596E+03    0.68066E-05   -0.39255E-05  1536   0.127E-02
  23 F= -.89809345E+03 E0= -.89809345E+03  d E =-.892127E-01  mag=    -0.0000
 BRION: g(F)=  0.134E+00 g(S)=  0.000E+00 retain N=  3 mean eig= 2.33
 eig:   0.322  0.322  6.352
 bond charge predicted
       N       E                     dE             d eps       ncg     rms          rms(c)
DAV:   1    -0.898126408270E+03   -0.32950E-01   -0.15617E+00  1808   0.200E+00    0.266E-01
DAV:   2    -0.898129472163E+03   -0.30639E-02   -0.42637E-02  2128   0.300E-01    0.209E-01
DAV:   3    -0.898128887473E+03    0.58469E-03   -0.99459E-04  2144   0.607E-02    0.129E-01
DAV:   4    -0.898128582951E+03    0.30452E-03   -0.10532E-03  2048   0.683E-02    0.328E-02
DAV:   5    -0.898128578634E+03    0.43175E-05   -0.28922E-04  2200   0.335E-02    0.228E-02
DAV:   6    -0.898128570984E+03    0.76495E-05   -0.91248E-05  2088   0.193E-02
  24 F= -.89812857E+03 E0= -.89812857E+03  d E =-.351194E-01  mag=     0.0000
 BRION: g(F)=  0.876E-01 g(S)=  0.000E+00 retain N=  3 mean eig= 1.19
 eig:   3.288  0.266  0.003
 bond charge predicted
       N       E                     dE             d eps       ncg     rms          rms(c)
DAV:   1    -0.898184639358E+03   -0.56061E-01   -0.63336E+00  1744   0.397E+00    0.445E-01
DAV:   2    -0.898194330078E+03   -0.96907E-02   -0.12037E-01  2048   0.509E-01    0.287E-01
DAV:   3    -0.898193219000E+03    0.11111E-02   -0.23510E-03  2144   0.941E-02    0.165E-01
DAV:   4    -0.898192829481E+03    0.38952E-03   -0.17876E-03  2112   0.953E-02    0.360E-02
DAV:   5    -0.898192857246E+03   -0.27765E-04   -0.56202E-04  2144   0.417E-02    0.319E-02
DAV:   6    -0.898192842929E+03    0.14317E-04   -0.92880E-05  2080   0.183E-02    0.163E-02
DAV:   7    -0.898192833525E+03    0.94037E-05   -0.56409E-06  1520   0.913E-03
  25 F= -.89819283E+03 E0= -.89819283E+03  d E =-.642625E-01  mag=    -0.0000
 BRION: g(F)=  0.771E-01 g(S)=  0.000E+00 retain N=  3 mean eig= 1.07
 eig:   2.722  0.385  0.117
 bond charge predicted
       N       E                     dE             d eps       ncg     rms          rms(c)
DAV:   1    -0.898229731150E+03   -0.36888E-01   -0.38212E+00  1744   0.315E+00    0.370E-01
DAV:   2    -0.898236022333E+03   -0.62912E-02   -0.86327E-02  2112   0.449E-01    0.248E-01
DAV:   3    -0.898234933758E+03    0.10886E-02   -0.19048E-03  2160   0.954E-02    0.149E-01
DAV:   4    -0.898234356106E+03    0.57765E-03   -0.17115E-03  2112   0.106E-01    0.382E-02
DAV:   5    -0.898234369979E+03   -0.13873E-04   -0.72794E-04  2176   0.515E-02    0.357E-02
DAV:   6    -0.898234344129E+03    0.25850E-04   -0.12108E-04  2080   0.221E-02    0.189E-02
DAV:   7    -0.898234319455E+03    0.24674E-04   -0.74282E-06  1536   0.166E-02    0.104E-02
DAV:   8    -0.898234303926E+03    0.15529E-04   -0.18097E-05  1560   0.218E-02    0.527E-03
DAV:   9    -0.898234305981E+03   -0.20552E-05   -0.34416E-05  1712   0.168E-02
  26 F= -.89823431E+03 E0= -.89823431E+03  d E =-.414725E-01  mag=    -0.0000
 BRION: g(F)=  0.995E-01 g(S)=  0.000E+00 retain N=  3 mean eig= 1.60
 eig:   4.393  0.232  0.175
 bond charge predicted
       N       E                     dE             d eps       ncg     rms          rms(c)
DAV:   1    -0.898273552119E+03   -0.39248E-01   -0.53474E+00  1744   0.366E+00    0.424E-01
DAV:   2    -0.898281411010E+03   -0.78589E-02   -0.10948E-01  2096   0.500E-01    0.288E-01
DAV:   3    -0.898279853372E+03    0.15576E-02   -0.25459E-03  2176   0.115E-01    0.164E-01
DAV:   4    -0.898279133750E+03    0.71962E-03   -0.19520E-03  2160   0.121E-01    0.345E-02
DAV:   5    -0.898279160159E+03   -0.26410E-04   -0.98328E-04  2144   0.584E-02    0.381E-02
DAV:   6    -0.898279117853E+03    0.42307E-04   -0.99325E-05  2112   0.209E-02    0.216E-02
DAV:   7    -0.898279069920E+03    0.47933E-04   -0.12487E-05  1536   0.226E-02    0.965E-03
DAV:   8    -0.898279048451E+03    0.21469E-04   -0.33626E-05  1856   0.262E-02    0.771E-03
DAV:   9    -0.898279051375E+03   -0.29244E-05   -0.45983E-05  1704   0.208E-02
  27 F= -.89827905E+03 E0= -.89827905E+03  d E =-.447454E-01  mag=    -0.0000
 BRION: g(F)=  0.948E-01 g(S)=  0.000E+00 retain N=  3 mean eig= 1.89
 eig:   4.744  0.311  0.620
 bond charge predicted
       N       E                     dE             d eps       ncg     rms          rms(c)
DAV:   1    -0.898305210890E+03   -0.26162E-01   -0.18036E+00  1744   0.222E+00    0.273E-01
DAV:   2    -0.898308193298E+03   -0.29824E-02   -0.44935E-02  2160   0.335E-01    0.196E-01
DAV:   3    -0.898307464780E+03    0.72852E-03   -0.12599E-03  2192   0.821E-02    0.120E-01
DAV:   4    -0.898307006363E+03    0.45842E-03   -0.87685E-04  2144   0.877E-02    0.315E-02
DAV:   5    -0.898306990902E+03    0.15460E-04   -0.51308E-04  2152   0.484E-02    0.281E-02
DAV:   6    -0.898306965077E+03    0.25826E-04   -0.11478E-04  2080   0.235E-02    0.161E-02
DAV:   7    -0.898306942541E+03    0.22536E-04   -0.57487E-06  1504   0.157E-02    0.104E-02
DAV:   8    -0.898306925082E+03    0.17458E-04   -0.25037E-05  1568   0.274E-02    0.493E-03
DAV:   9    -0.898306932780E+03   -0.76973E-05   -0.51617E-05  1632   0.148E-02
  28 F= -.89830693E+03 E0= -.89830693E+03  d E =-.278814E-01  mag=    -0.0000
 BRION: g(F)=  0.773E-01 g(S)=  0.000E+00 retain N=  2 mean eig= 0.79
 eig:   0.199  1.373
 bond charge predicted
       N       E                     dE             d eps       ncg     rms          rms(c)
DAV:   1    -0.898322677078E+03   -0.15752E-01   -0.15821E+00  1744   0.189E+00    0.245E-01
DAV:   2    -0.898324679359E+03   -0.20023E-02   -0.32699E-02  2128   0.265E-01    0.184E-01
DAV:   3    -0.898324019514E+03    0.65984E-03   -0.10596E-03  2160   0.718E-02    0.993E-02
DAV:   4    -0.898323794434E+03    0.22508E-03   -0.74750E-04  2120   0.665E-02    0.219E-02
DAV:   5    -0.898323793607E+03    0.82726E-06   -0.28243E-04  2168   0.340E-02    0.199E-02
DAV:   6    -0.898323776690E+03    0.16917E-04   -0.40884E-05  2088   0.156E-02    0.112E-02
DAV:   7    -0.898323767368E+03    0.93224E-05   -0.34045E-06  1520   0.948E-03
  29 F= -.89832377E+03 E0= -.89832377E+03  d E =-.168346E-01  mag=    -0.0000
 BRION: g(F)=  0.802E-01 g(S)=  0.000E+00 retain N=  3 mean eig= 0.91
 eig:   2.370  0.163  0.204
 bond charge predicted
       N       E                     dE             d eps       ncg     rms          rms(c)
DAV:   1    -0.898342259374E+03   -0.18483E-01   -0.83389E-01  1744   0.145E+00    0.186E-01
DAV:   2    -0.898343606429E+03   -0.13471E-02   -0.20373E-02  2144   0.213E-01    0.136E-01
DAV:   3    -0.898343266769E+03    0.33966E-03   -0.54493E-04  2176   0.518E-02    0.785E-02
DAV:   4    -0.898343108673E+03    0.15810E-03   -0.39077E-04  2128   0.533E-02    0.164E-02
DAV:   5    -0.898343113645E+03   -0.49724E-05   -0.20029E-04  2128   0.272E-02    0.165E-02
DAV:   6    -0.898343106284E+03    0.73612E-05   -0.19332E-05  1536   0.942E-03
  30 F= -.89834311E+03 E0= -.89834311E+03  d E =-.193389E-01  mag=     0.0000
 BRION: g(F)=  0.442E-01 g(S)=  0.000E+00 retain N=  3 mean eig= 2.22
 eig:   6.266  0.204  0.204
 bond charge predicted
       N       E                     dE             d eps       ncg     rms          rms(c)
DAV:   1    -0.898368686869E+03   -0.25573E-01   -0.19146E+00  1744   0.223E+00    0.254E-01
DAV:   2    -0.898371678015E+03   -0.29911E-02   -0.37216E-02  2048   0.291E-01    0.161E-01
DAV:   3    -0.898371320799E+03    0.35722E-03   -0.65712E-04  2128   0.540E-02    0.931E-02
DAV:   4    -0.898371185663E+03    0.13514E-03   -0.62558E-04  2128   0.601E-02    0.204E-02
DAV:   5    -0.898371195096E+03   -0.94333E-05   -0.21359E-04  2032   0.255E-02    0.206E-02
DAV:   6    -0.898371189156E+03    0.59404E-05   -0.23355E-05  1656   0.928E-03
  31 F= -.89837119E+03 E0= -.89837119E+03  d E =-.280829E-01  mag=    -0.0000
 BRION: g(F)=  0.399E-01 g(S)=  0.000E+00 retain N=  3 mean eig= 2.05
 eig:   5.819  0.298  0.042
 bond charge predicted
       N       E                     dE             d eps       ncg     rms          rms(c)
DAV:   1    -0.898398006535E+03   -0.26811E-01   -0.22421E+00  1744   0.240E+00    0.282E-01
DAV:   2    -0.898401549995E+03   -0.35435E-02   -0.43297E-02  2032   0.312E-01    0.177E-01
DAV:   3    -0.898401179792E+03    0.37020E-03   -0.77655E-04  2128   0.540E-02    0.101E-01
DAV:   4    -0.898401052611E+03    0.12718E-03   -0.63509E-04  2080   0.559E-02    0.219E-02
DAV:   5    -0.898401059425E+03   -0.68138E-05   -0.18797E-04  2016   0.244E-02    0.197E-02
DAV:   6    -0.898401054664E+03    0.47607E-05   -0.28863E-05  1840   0.107E-02
  32 F= -.89840105E+03 E0= -.89840105E+03  d E =-.298655E-01  mag=     0.0000
 BRION: g(F)=  0.414E-01 g(S)=  0.000E+00 retain N=  3 mean eig= 1.07
 eig:   2.447  0.219  0.545
 bond charge predicted
       N       E                     dE             d eps       ncg     rms          rms(c)
DAV:   1    -0.898419970112E+03   -0.18911E-01   -0.14148E+00  1744   0.189E+00    0.223E-01
DAV:   2    -0.898422030278E+03   -0.20602E-02   -0.28258E-02  2096   0.257E-01    0.148E-01
DAV:   3    -0.898421656027E+03    0.37425E-03   -0.67276E-04  2152   0.589E-02    0.843E-02
DAV:   4    -0.898421497779E+03    0.15825E-03   -0.53852E-04  2160   0.607E-02    0.204E-02
DAV:   5    -0.898421503164E+03   -0.53849E-05   -0.23254E-04  2056   0.285E-02    0.203E-02
DAV:   6    -0.898421493145E+03    0.10019E-04   -0.37167E-05  2032   0.126E-02    0.106E-02
DAV:   7    -0.898421484634E+03    0.85110E-05   -0.24668E-06  1488   0.942E-03
  33 F= -.89842148E+03 E0= -.89842148E+03  d E =-.204300E-01  mag=    -0.0000
 BRION: g(F)=  0.445E-01 g(S)=  0.000E+00 retain N=  2 mean eig= 0.77
 eig:   0.213  1.330
 bond charge predicted
       N       E                     dE             d eps       ncg     rms          rms(c)
DAV:   1    -0.898432788416E+03   -0.11295E-01   -0.46158E-01  1744   0.112E+00    0.133E-01
DAV:   2    -0.898433492290E+03   -0.70387E-03   -0.11072E-02  2144   0.167E-01    0.909E-02
DAV:   3    -0.898433290289E+03    0.20200E-03   -0.29920E-04  2160   0.439E-02    0.541E-02
DAV:   4    -0.898433175555E+03    0.11473E-03   -0.21098E-04  2176   0.462E-02    0.126E-02
DAV:   5    -0.898433175420E+03    0.13551E-06   -0.15082E-04  2000   0.248E-02    0.138E-02
DAV:   6    -0.898433167824E+03    0.75963E-05   -0.15174E-05  1520   0.924E-03
  34 F= -.89843317E+03 E0= -.89843317E+03  d E =-.116832E-01  mag=    -0.0000
 BRION: g(F)=  0.356E-01 g(S)=  0.000E+00 retain N=  2 mean eig= 1.09
 eig:   0.186  1.986
 bond charge predicted
       N       E                     dE             d eps       ncg     rms          rms(c)
DAV:   1    -0.898454002418E+03   -0.20827E-01   -0.14061E+00  1744   0.188E+00    0.220E-01
DAV:   2    -0.898456116710E+03   -0.21143E-02   -0.25845E-02  2000   0.239E-01    0.139E-01
DAV:   3    -0.898455890646E+03    0.22606E-03   -0.46951E-04  2112   0.411E-02    0.775E-02
DAV:   4    -0.898455831025E+03    0.59621E-04   -0.39042E-04  2024   0.408E-02    0.164E-02
DAV:   5    -0.898455834358E+03   -0.33326E-05   -0.98660E-05  1936   0.169E-02
  35 F= -.89845583E+03 E0= -.89845583E+03  d E =-.226665E-01  mag=     0.0000
 BRION: g(F)=  0.312E-01 g(S)=  0.000E+00 retain N=  2 mean eig= 0.32
 eig:   0.143  0.503
 bond charge predicted
       N       E                     dE             d eps       ncg     rms          rms(c)
DAV:   1    -0.898476031411E+03   -0.20200E-01   -0.14403E+00  1744   0.190E+00    0.227E-01
DAV:   2    -0.898478245356E+03   -0.22139E-02   -0.26780E-02  1984   0.242E-01    0.142E-01
DAV:   3    -0.898478026849E+03    0.21851E-03   -0.46723E-04  2120   0.410E-02    0.789E-02
DAV:   4    -0.898477975712E+03    0.51137E-04   -0.41809E-04  2024   0.422E-02    0.181E-02
DAV:   5    -0.898477977801E+03   -0.20889E-05   -0.99586E-05  1984   0.170E-02
  36 F= -.89847798E+03 E0= -.89847798E+03  d E =-.221434E-01  mag=     0.0000
 BRION: g(F)=  0.309E-01 g(S)=  0.000E+00 retain N=  2 mean eig= 0.36
 eig:   0.081  0.634
 bond charge predicted
       N       E                     dE             d eps       ncg     rms          rms(c)
DAV:   1    -0.898500572687E+03   -0.22597E-01   -0.19542E+00  1744   0.225E+00    0.268E-01
DAV:   2    -0.898503641332E+03   -0.30686E-02   -0.37376E-02  2016   0.291E-01    0.166E-01
DAV:   3    -0.898503321301E+03    0.32003E-03   -0.63661E-04  2128   0.523E-02    0.943E-02
DAV:   4    -0.898503222727E+03    0.98575E-04   -0.59118E-04  2112   0.572E-02    0.221E-02
DAV:   5    -0.898503227715E+03   -0.49884E-05   -0.18248E-04  1984   0.241E-02    0.207E-02
DAV:   6    -0.898503222165E+03    0.55499E-05   -0.27710E-05  1840   0.102E-02
  37 F= -.89850322E+03 E0= -.89850322E+03  d E =-.252444E-01  mag=     0.0000
 BRION: g(F)=  0.330E-01 g(S)=  0.000E+00 retain N=  2 mean eig= 0.35
 eig:   0.346  0.346
 bond charge predicted
       N       E                     dE             d eps       ncg     rms          rms(c)
DAV:   1    -0.898509306389E+03   -0.60787E-02   -0.26959E-01  1744   0.845E-01    0.997E-02
DAV:   2    -0.898509666152E+03   -0.35976E-03   -0.64571E-03  2112   0.129E-01    0.705E-02
DAV:   3    -0.898509527252E+03    0.13890E-03   -0.21091E-04  2192   0.367E-02    0.412E-02
DAV:   4    -0.898509453794E+03    0.73458E-04   -0.12908E-04  2112   0.349E-02    0.102E-02
DAV:   5    -0.898509452042E+03    0.17523E-05   -0.92962E-05  2048   0.207E-02
  38 F= -.89850945E+03 E0= -.89850945E+03  d E =-.622988E-02  mag=     0.0000
 BRION: g(F)=  0.312E-01 g(S)=  0.000E+00 retain N=  2 mean eig= 0.87
 eig:   0.238  1.504
 bond charge predicted
       N       E                     dE             d eps       ncg     rms          rms(c)
DAV:   1    -0.898525846387E+03   -0.16393E-01   -0.98306E-01  1744   0.159E+00    0.189E-01
DAV:   2    -0.898527342988E+03   -0.14966E-02   -0.18758E-02  2000   0.207E-01    0.119E-01
DAV:   3    -0.898527158812E+03    0.18418E-03   -0.35131E-04  2144   0.387E-02    0.668E-02
DAV:   4    -0.898527102858E+03    0.55954E-04   -0.31462E-04  2112   0.403E-02    0.149E-02
DAV:   5    -0.898527106469E+03   -0.36114E-05   -0.91962E-05  2128   0.167E-02
  39 F= -.89852711E+03 E0= -.89852711E+03  d E =-.176544E-01  mag=     0.0000
 BRION: g(F)=  0.272E-01 g(S)=  0.000E+00 retain N=  2 mean eig= 0.79
 eig:   0.195  1.377
 bond charge predicted
       N       E                     dE             d eps       ncg     rms          rms(c)
DAV:   1    -0.898542960680E+03   -0.15858E-01   -0.94728E-01  1744   0.156E+00    0.188E-01
DAV:   2    -0.898544423352E+03   -0.14627E-02   -0.17936E-02  2032   0.202E-01    0.116E-01
DAV:   3    -0.898544269513E+03    0.15384E-03   -0.31759E-04  2112   0.361E-02    0.648E-02
DAV:   4    -0.898544227710E+03    0.41802E-04   -0.28264E-04  2160   0.375E-02    0.149E-02
DAV:   5    -0.898544229837E+03   -0.21263E-05   -0.75461E-05  2064   0.155E-02
  40 F= -.89854423E+03 E0= -.89854423E+03  d E =-.171234E-01  mag=    -0.0000
 BRION: g(F)=  0.260E-01 g(S)=  0.000E+00 retain N=  2 mean eig= 0.44
 eig:   0.049  0.827
 bond charge predicted
       N       E                     dE             d eps       ncg     rms          rms(c)
DAV:   1    -0.898562647069E+03   -0.18419E-01   -0.14447E+00  1744   0.191E+00    0.229E-01
DAV:   2    -0.898564816342E+03   -0.21693E-02   -0.26601E-02  2016   0.244E-01    0.142E-01
DAV:   3    -0.898564585733E+03    0.23061E-03   -0.49197E-04  2144   0.433E-02    0.787E-02
DAV:   4    -0.898564530198E+03    0.55536E-04   -0.41245E-04  2096   0.428E-02    0.179E-02
DAV:   5    -0.898564533078E+03   -0.28799E-05   -0.10210E-04  2080   0.175E-02    0.155E-02
DAV:   6    -0.898564530360E+03    0.27175E-05   -0.20635E-05  1584   0.934E-03
  41 F= -.89856453E+03 E0= -.89856453E+03  d E =-.203005E-01  mag=    -0.0000
 BRION: g(F)=  0.263E-01 g(S)=  0.000E+00 retain N=  2 mean eig= 0.54
 eig:   0.002  1.083
 bond charge predicted
       N       E                     dE             d eps       ncg     rms          rms(c)
DAV:   1    -0.898576583829E+03   -0.12051E-01   -0.63911E-01  1744   0.128E+00    0.153E-01
DAV:   2    -0.898577565677E+03   -0.98185E-03   -0.12574E-02  2064   0.171E-01    0.982E-02
DAV:   3    -0.898577426973E+03    0.13870E-03   -0.24679E-04  2176   0.349E-02    0.552E-02
DAV:   4    -0.898577377328E+03    0.49645E-04   -0.20822E-04  2144   0.371E-02    0.117E-02
DAV:   5    -0.898577381131E+03   -0.38022E-05   -0.83932E-05  2128   0.163E-02
  42 F= -.89857738E+03 E0= -.89857738E+03  d E =-.128508E-01  mag=     0.0000
 BRION: g(F)=  0.266E-01 g(S)=  0.000E+00 retain N=  2 mean eig= 0.36
 eig:   0.145  0.571
 bond charge predicted
       N       E                     dE             d eps       ncg     rms          rms(c)
DAV:   1    -0.898587740518E+03   -0.10363E-01   -0.45999E-01  1744   0.109E+00    0.133E-01
DAV:   2    -0.898588430775E+03   -0.69026E-03   -0.92637E-03  2112   0.148E-01    0.842E-02
DAV:   3    -0.898588320556E+03    0.11022E-03   -0.21249E-04  2176   0.316E-02    0.473E-02
DAV:   4    -0.898588281245E+03    0.39312E-04   -0.15764E-04  2128   0.305E-02    0.107E-02
DAV:   5    -0.898588283331E+03   -0.20863E-05   -0.56265E-05  2096   0.140E-02
  43 F= -.89858828E+03 E0= -.89858828E+03  d E =-.109022E-01  mag=     0.0000
 BRION: g(F)=  0.245E-01 g(S)=  0.000E+00 retain N=  2 mean eig= 0.75
 eig:   0.188  1.316
 bond charge predicted
       N       E                     dE             d eps       ncg     rms          rms(c)
DAV:   1    -0.898601839417E+03   -0.13558E-01   -0.79164E-01  1744   0.142E+00    0.170E-01
DAV:   2    -0.898603026830E+03   -0.11874E-02   -0.14771E-02  2032   0.183E-01    0.106E-01
DAV:   3    -0.898602887219E+03    0.13961E-03   -0.27661E-04  2144   0.335E-02    0.589E-02
DAV:   4    -0.898602850268E+03    0.36951E-04   -0.24354E-04  2128   0.339E-02    0.135E-02
DAV:   5    -0.898602852148E+03   -0.18797E-05   -0.63968E-05  2048   0.140E-02
  44 F= -.89860285E+03 E0= -.89860285E+03  d E =-.145688E-01  mag=     0.0000
 BRION: g(F)=  0.227E-01 g(S)=  0.000E+00 retain N=  2 mean eig= 0.82
 eig:   0.127  1.515
 bond charge predicted
       N       E                     dE             d eps       ncg     rms          rms(c)
DAV:   1    -0.898618240893E+03   -0.15391E-01   -0.10718E+00  1744   0.165E+00    0.199E-01
DAV:   2    -0.898619868867E+03   -0.16280E-02   -0.19798E-02  1984   0.210E-01    0.123E-01
DAV:   3    -0.898619700119E+03    0.16875E-03   -0.34408E-04  2144   0.369E-02    0.679E-02
DAV:   4    -0.898619659226E+03    0.40893E-04   -0.30628E-04  2096   0.379E-02    0.153E-02
DAV:   5    -0.898619661524E+03   -0.22980E-05   -0.78737E-05  2080   0.153E-02
  45 F= -.89861966E+03 E0= -.89861966E+03  d E =-.168094E-01  mag=     0.0000
 BRION: g(F)=  0.225E-01 g(S)=  0.000E+00 retain N=  2 mean eig= 0.56
 eig:   0.066  1.046
 bond charge predicted
       N       E                     dE             d eps       ncg     rms          rms(c)
DAV:   1    -0.898633844494E+03   -0.14185E-01   -0.96215E-01  1744   0.156E+00    0.191E-01
DAV:   2    -0.898635301487E+03   -0.14570E-02   -0.18139E-02  2032   0.203E-01    0.119E-01
DAV:   3    -0.898635137029E+03    0.16446E-03   -0.35842E-04  2144   0.382E-02    0.658E-02
DAV:   4    -0.898635093286E+03    0.43743E-04   -0.27707E-04  2112   0.361E-02    0.152E-02
DAV:   5    -0.898635095301E+03   -0.20149E-05   -0.75725E-05  2096   0.157E-02
  46 F= -.89863510E+03 E0= -.89863510E+03  d E =-.154338E-01  mag=    -0.0000
 BRION: g(F)=  0.236E-01 g(S)=  0.000E+00 retain N=  2 mean eig= 0.18
 eig:   0.068  0.286
 bond charge predicted
       N       E                     dE             d eps       ncg     rms          rms(c)
DAV:   1    -0.898642190497E+03   -0.70972E-02   -0.28889E-01  1744   0.872E-01    0.104E-01
DAV:   2    -0.898642619895E+03   -0.42940E-03   -0.62161E-03  2128   0.124E-01    0.677E-02
DAV:   3    -0.898642525788E+03    0.94106E-04   -0.15463E-04  2192   0.295E-02    0.390E-02
DAV:   4    -0.898642484800E+03    0.40989E-04   -0.12417E-04  2144   0.301E-02    0.915E-03
DAV:   5    -0.898642486794E+03   -0.19947E-05   -0.58474E-05  2112   0.144E-02
  47 F= -.89864249E+03 E0= -.89864249E+03  d E =-.739149E-02  mag=     0.0000
 BRION: g(F)=  0.223E-01 g(S)=  0.000E+00 retain N=  2 mean eig= 0.82
 eig:   0.186  1.449
 bond charge predicted
       N       E                     dE             d eps       ncg     rms          rms(c)
DAV:   1    -0.898653666989E+03   -0.11182E-01   -0.57492E-01  1744   0.121E+00    0.146E-01
DAV:   2    -0.898654530421E+03   -0.86343E-03   -0.10877E-02  2032   0.158E-01    0.913E-02
DAV:   3    -0.898654423065E+03    0.10736E-03   -0.21065E-04  2160   0.298E-02    0.506E-02
DAV:   4    -0.898654392656E+03    0.30408E-04   -0.17569E-04  2160   0.297E-02    0.111E-02
DAV:   5    -0.898654394427E+03   -0.17707E-05   -0.49623E-05  1984   0.125E-02
  48 F= -.89865439E+03 E0= -.89865439E+03  d E =-.119076E-01  mag=    -0.0000
 BRION: g(F)=  0.201E-01 g(S)=  0.000E+00 retain N=  2 mean eig= 0.86
 eig:   0.183  1.533
 bond charge predicted
       N       E                     dE             d eps       ncg     rms          rms(c)
DAV:   1    -0.898667833787E+03   -0.13441E-01   -0.87694E-01  1744   0.148E+00    0.181E-01
DAV:   2    -0.898669158626E+03   -0.13248E-02   -0.16106E-02  1984   0.189E-01    0.112E-01
DAV:   3    -0.898669023569E+03    0.13506E-03   -0.28969E-04  2144   0.330E-02    0.616E-02
DAV:   4    -0.898668993443E+03    0.30125E-04   -0.24511E-04  2080   0.318E-02    0.143E-02
DAV:   5    -0.898668994277E+03   -0.83327E-06   -0.55118E-05  1984   0.131E-02
  49 F= -.89866899E+03 E0= -.89866899E+03  d E =-.145998E-01  mag=     0.0000
 BRION: g(F)=  0.197E-01 g(S)=  0.000E+00 retain N=  2 mean eig= 0.29
 eig:   0.109  0.477
 bond charge predicted
       N       E                     dE             d eps       ncg     rms          rms(c)
DAV:   1    -0.898683622375E+03   -0.14629E-01   -0.11802E+00  1744   0.172E+00    0.207E-01
DAV:   2    -0.898685395243E+03   -0.17729E-02   -0.21802E-02  2000   0.221E-01    0.129E-01
DAV:   3    -0.898685193399E+03    0.20184E-03   -0.39241E-04  2144   0.408E-02    0.713E-02
DAV:   4    -0.898685140739E+03    0.52660E-04   -0.34728E-04  2128   0.419E-02    0.160E-02
DAV:   5    -0.898685144171E+03   -0.34316E-05   -0.10111E-04  2048   0.173E-02    0.149E-02
DAV:   6    -0.898685141348E+03    0.28223E-05   -0.13631E-05  1264   0.727E-03
  50 F= -.89868514E+03 E0= -.89868514E+03  d E =-.161471E-01  mag=     0.0000
 BRION: g(F)=  0.209E-01 g(S)=  0.000E+00 retain N=  2 mean eig= 0.29
 eig:   0.107  0.468
 bond charge predicted
       N       E                     dE             d eps       ncg     rms          rms(c)
DAV:   1    -0.898691222676E+03   -0.60785E-02   -0.22936E-01  1744   0.781E-01    0.941E-02
DAV:   2    -0.898691563156E+03   -0.34048E-03   -0.51410E-03  2128   0.114E-01    0.616E-02
DAV:   3    -0.898691481023E+03    0.82133E-04   -0.14207E-04  2192   0.283E-02    0.360E-02
DAV:   4    -0.898691441430E+03    0.39593E-04   -0.92272E-05  2128   0.271E-02    0.850E-03
DAV:   5    -0.898691442200E+03   -0.76911E-06   -0.49825E-05  2048   0.144E-02
  51 F= -.89869144E+03 E0= -.89869144E+03  d E =-.630085E-02  mag=    -0.0000
 BRION: g(F)=  0.206E-01 g(S)=  0.000E+00 retain N=  2 mean eig= 0.81
 eig:   0.211  1.406
 bond charge predicted
       N       E                     dE             d eps       ncg     rms          rms(c)
DAV:   1    -0.898700184839E+03   -0.87434E-02   -0.39927E-01  1744   0.101E+00    0.122E-01
DAV:   2    -0.898700777732E+03   -0.59289E-03   -0.77387E-03  2064   0.134E-01    0.770E-02
DAV:   3    -0.898700687907E+03    0.89825E-04   -0.16267E-04  2176   0.276E-02    0.430E-02
DAV:   4    -0.898700658975E+03    0.28932E-04   -0.13829E-04  2176   0.276E-02    0.985E-03
DAV:   5    -0.898700660319E+03   -0.13440E-05   -0.42858E-05  1888   0.119E-02
  52 F= -.89870066E+03 E0= -.89870066E+03  d E =-.921812E-02  mag=     0.0000
 BRION: g(F)=  0.184E-01 g(S)=  0.000E+00 retain N=  2 mean eig= 0.77
 eig:   0.175  1.369
 bond charge predicted
       N       E                     dE             d eps       ncg     rms          rms(c)
DAV:   1    -0.898712416003E+03   -0.11757E-01   -0.74112E-01  1744   0.136E+00    0.165E-01
DAV:   2    -0.898713525500E+03   -0.11095E-02   -0.13530E-02  1984   0.173E-01    0.102E-01
DAV:   3    -0.898713405847E+03    0.11965E-03   -0.23936E-04  2160   0.306E-02    0.560E-02
DAV:   4    -0.898713378451E+03    0.27396E-04   -0.20812E-04  2112   0.305E-02    0.125E-02
DAV:   5    -0.898713379917E+03   -0.14659E-05   -0.52071E-05  1920   0.123E-02
  53 F= -.89871338E+03 E0= -.89871338E+03  d E =-.127196E-01  mag=    -0.0000
 BRION: g(F)=  0.175E-01 g(S)=  0.000E+00 retain N=  2 mean eig= 0.40
 eig:   0.069  0.739
 bond charge predicted
       N       E                     dE             d eps       ncg     rms          rms(c)
DAV:   1    -0.898726666328E+03   -0.13288E-01   -0.10057E+00  1744   0.158E+00    0.195E-01
DAV:   2    -0.898728189023E+03   -0.15227E-02   -0.18550E-02  1968   0.203E-01    0.120E-01
DAV:   3    -0.898728034457E+03    0.15457E-03   -0.34262E-04  2160   0.359E-02    0.661E-02
DAV:   4    -0.898727998501E+03    0.35957E-04   -0.27132E-04  2048   0.337E-02    0.151E-02
DAV:   5    -0.898727999706E+03   -0.12056E-05   -0.64866E-05  2112   0.142E-02
  54 F= -.89872800E+03 E0= -.89872800E+03  d E =-.146198E-01  mag=     0.0000
 BRION: g(F)=  0.181E-01 g(S)=  0.000E+00 retain N=  2 mean eig= 0.42
 eig:   0.014  0.825
 bond charge predicted
       N       E                     dE             d eps       ncg     rms          rms(c)
DAV:   1    -0.898737173388E+03   -0.91749E-02   -0.53517E-01  1744   0.117E+00    0.141E-01
DAV:   2    -0.898737984884E+03   -0.81150E-03   -0.10484E-02  2080   0.157E-01    0.887E-02
DAV:   3    -0.898737864740E+03    0.12014E-03   -0.21401E-04  2192   0.332E-02    0.498E-02
DAV:   4    -0.898737822395E+03    0.42345E-04   -0.18102E-04  2144   0.343E-02    0.114E-02
DAV:   5    -0.898737825062E+03   -0.26673E-05   -0.71095E-05  2112   0.152E-02
  55 F= -.89873783E+03 E0= -.89873783E+03  d E =-.982536E-02  mag=     0.0000
 BRION: g(F)=  0.190E-01 g(S)=  0.000E+00 retain N=  2 mean eig= 0.53
 eig:   0.078  0.984
 bond charge predicted
       N       E                     dE             d eps       ncg     rms          rms(c)
DAV:   1    -0.898742636681E+03   -0.48143E-02   -0.15888E-01  1744   0.645E-01    0.787E-02
DAV:   2    -0.898742863022E+03   -0.22634E-03   -0.35076E-03  2112   0.935E-02    0.511E-02
DAV:   3    -0.898742804013E+03    0.59009E-04   -0.98408E-05  2208   0.231E-02    0.292E-02
DAV:   4    -0.898742779017E+03    0.24996E-04   -0.71162E-05  2144   0.221E-02    0.684E-03
DAV:   5    -0.898742779390E+03   -0.37299E-06   -0.28670E-05  1840   0.109E-02
  56 F= -.89874278E+03 E0= -.89874278E+03  d E =-.495433E-02  mag=     0.0000
 BRION: g(F)=  0.171E-01 g(S)=  0.000E+00 retain N=  2 mean eig= 0.82
 eig:   0.204  1.433
 bond charge predicted
       N       E                     dE             d eps       ncg     rms          rms(c)
DAV:   1    -0.898753112179E+03   -0.10333E-01   -0.60425E-01  1744   0.123E+00    0.150E-01
DAV:   2    -0.898754013882E+03   -0.90170E-03   -0.11073E-02  1984   0.157E-01    0.933E-02
DAV:   3    -0.898753914989E+03    0.98893E-04   -0.20671E-04  2176   0.280E-02    0.512E-02
DAV:   4    -0.898753892278E+03    0.22711E-04   -0.16913E-04  2064   0.264E-02    0.117E-02
DAV:   5    -0.898753892959E+03   -0.68142E-06   -0.38666E-05  1840   0.110E-02
  57 F= -.89875389E+03 E0= -.89875389E+03  d E =-.111136E-01  mag=     0.0000
 BRION: g(F)=  0.158E-01 g(S)=  0.000E+00 retain N=  2 mean eig= 0.48
 eig:   0.142  0.823
 bond charge predicted
       N       E                     dE             d eps       ncg     rms          rms(c)
DAV:   1    -0.898766184332E+03   -0.12292E-01   -0.95000E-01  1744   0.154E+00    0.187E-01
DAV:   2    -0.898767613055E+03   -0.14287E-02   -0.17308E-02  1984   0.195E-01    0.116E-01
DAV:   3    -0.898767463009E+03    0.15005E-03   -0.30057E-04  2160   0.346E-02    0.634E-02
DAV:   4    -0.898767428928E+03    0.34081E-04   -0.26228E-04  2080   0.344E-02    0.143E-02
DAV:   5    -0.898767430574E+03   -0.16461E-05   -0.67240E-05  2048   0.140E-02
  58 F= -.89876743E+03 E0= -.89876743E+03  d E =-.135376E-01  mag=     0.0000
 BRION: g(F)=  0.162E-01 g(S)=  0.000E+00 retain N=  2 mean eig= 0.39
 eig:   0.394  0.394
 bond charge predicted
       N       E                     dE             d eps       ncg     rms          rms(c)
DAV:   1    -0.898777810149E+03   -0.10381E-01   -0.71479E-01  1744   0.134E+00    0.165E-01
DAV:   2    -0.898778889441E+03   -0.10793E-02   -0.13576E-02  2032   0.175E-01    0.102E-01
DAV:   3    -0.898778758167E+03    0.13127E-03   -0.27621E-04  2176   0.344E-02    0.566E-02
DAV:   4    -0.898778719753E+03    0.38414E-04   -0.20417E-04  2160   0.327E-02    0.126E-02
DAV:   5    -0.898778721817E+03   -0.20639E-05   -0.64920E-05  2096   0.145E-02
  59 F= -.89877872E+03 E0= -.89877872E+03  d E =-.112912E-01  mag=     0.0000
 BRION: g(F)=  0.173E-01 g(S)=  0.000E+00 retain N=  2 mean eig= 0.67
 eig:   0.160  1.176
 bond charge predicted
       N       E                     dE             d eps       ncg     rms          rms(c)
DAV:   1    -0.898780816515E+03   -0.20968E-02   -0.72053E-02  1776   0.437E-01    0.532E-02
DAV:   2    -0.898780903757E+03   -0.87241E-04   -0.19040E-03  2144   0.703E-02    0.371E-02
DAV:   3    -0.898780856570E+03    0.47186E-04   -0.71221E-05  2160   0.205E-02    0.221E-02
DAV:   4    -0.898780833111E+03    0.23459E-04   -0.46086E-05  2080   0.184E-02    0.609E-03
DAV:   5    -0.898780831483E+03    0.16281E-05   -0.20464E-05  1760   0.109E-02
  60 F= -.89878083E+03 E0= -.89878083E+03  d E =-.210967E-02  mag=     0.0000
 BRION: g(F)=  0.159E-01 g(S)=  0.000E+00 retain N=  2 mean eig= 0.76
 eig:   0.183  1.339
 bond charge predicted
       N       E                     dE             d eps       ncg     rms          rms(c)
DAV:   1    -0.898790492660E+03   -0.96595E-02   -0.58263E-01  1744   0.120E+00    0.146E-01
DAV:   2    -0.898791355920E+03   -0.86326E-03   -0.10630E-02  1984   0.153E-01    0.913E-02
DAV:   3    -0.898791256904E+03    0.99016E-04   -0.19447E-04  2176   0.278E-02    0.498E-02
DAV:   4    -0.898791233320E+03    0.23585E-04   -0.16372E-04  2112   0.271E-02    0.109E-02
DAV:   5    -0.898791234570E+03   -0.12500E-05   -0.41562E-05  1776   0.110E-02
  61 F= -.89879123E+03 E0= -.89879123E+03  d E =-.104031E-01  mag=     0.0000
 BRION: g(F)=  0.144E-01 g(S)=  0.000E+00 retain N=  2 mean eig= 0.54
 eig:   0.179  0.897
 bond charge predicted
       N       E                     dE             d eps       ncg     rms          rms(c)
DAV:   1    -0.898802119509E+03   -0.10886E-01   -0.78376E-01  1744   0.139E+00    0.172E-01
DAV:   2    -0.898803298578E+03   -0.11791E-02   -0.14299E-02  1968   0.176E-01    0.106E-01
DAV:   3    -0.898803180912E+03    0.11767E-03   -0.26042E-04  2176   0.307E-02    0.578E-02
DAV:   4    -0.898803156056E+03    0.24856E-04   -0.20518E-04  2048   0.284E-02    0.131E-02
DAV:   5    -0.898803156760E+03   -0.70323E-06   -0.46454E-05  1904   0.118E-02
  62 F= -.89880316E+03 E0= -.89880316E+03  d E =-.119222E-01  mag=    -0.0000
 BRION: g(F)=  0.146E-01 g(S)=  0.000E+00 retain N=  2 mean eig= 0.40
 eig:   0.111  0.681
 bond charge predicted
       N       E                     dE             d eps       ncg     rms          rms(c)
DAV:   1    -0.898814945831E+03   -0.11790E-01   -0.10336E+00  1744   0.160E+00    0.196E-01
DAV:   2    -0.898816500076E+03   -0.15542E-02   -0.19089E-02  1984   0.205E-01    0.122E-01
DAV:   3    -0.898816324304E+03    0.17577E-03   -0.34848E-04  2160   0.383E-02    0.668E-02
DAV:   4    -0.898816279171E+03    0.45133E-04   -0.29682E-04  2112   0.382E-02    0.152E-02
DAV:   5    -0.898816281475E+03   -0.23042E-05   -0.85034E-05  2096   0.160E-02
  63 F= -.89881628E+03 E0= -.89881628E+03  d E =-.131247E-01  mag=    -0.0000
 BRION: g(F)=  0.157E-01 g(S)=  0.000E+00 retain N=  2 mean eig= 0.44
 eig:   0.071  0.804
 bond charge predicted
       N       E                     dE             d eps       ncg     rms          rms(c)
DAV:   1    -0.898816414919E+03   -0.13575E-03   -0.54900E-02  1776   0.374E-01    0.457E-02
DAV:   2    -0.898816464327E+03   -0.49408E-04   -0.15712E-03  2176   0.639E-02    0.335E-02
DAV:   3    -0.898816417144E+03    0.47182E-04   -0.70243E-05  2192   0.204E-02    0.202E-02
DAV:   4    -0.898816393568E+03    0.23576E-04   -0.37843E-05  2032   0.170E-02    0.595E-03
DAV:   5    -0.898816390054E+03    0.35146E-05   -0.16912E-05  1648   0.115E-02
  64 F= -.89881639E+03 E0= -.89881639E+03  d E =-.108578E-03  mag=    -0.0000
 BRION: g(F)=  0.151E-01 g(S)=  0.000E+00 retain N=  2 mean eig= 0.72
 eig:   0.238  1.204
 bond charge predicted
       N       E                     dE             d eps       ncg     rms          rms(c)
DAV:   1    -0.898825162022E+03   -0.87685E-02   -0.51033E-01  1744   0.112E+00    0.138E-01
DAV:   2    -0.898825915089E+03   -0.75307E-03   -0.93784E-03  1984   0.144E-01    0.862E-02
DAV:   3    -0.898825826862E+03    0.88227E-04   -0.18533E-04  2176   0.268E-02    0.471E-02
DAV:   4    -0.898825805365E+03    0.21497E-04   -0.14178E-04  2096   0.247E-02    0.104E-02
DAV:   5    -0.898825806216E+03   -0.85115E-06   -0.33883E-05  1696   0.103E-02
  65 F= -.89882581E+03 E0= -.89882581E+03  d E =-.941616E-02  mag=     0.0000
 BRION: g(F)=  0.133E-01 g(S)=  0.000E+00 retain N=  2 mean eig= 0.58
 eig:   0.201  0.966
 bond charge predicted
       N       E                     dE             d eps       ncg     rms          rms(c)
DAV:   1    -0.898835414288E+03   -0.96089E-02   -0.65836E-01  1744   0.127E+00    0.157E-01
DAV:   2    -0.898836402723E+03   -0.98843E-03   -0.11975E-02  1968   0.161E-01    0.971E-02
DAV:   3    -0.898836300868E+03    0.10185E-03   -0.21107E-04  2176   0.285E-02    0.528E-02
DAV:   4    -0.898836279063E+03    0.21805E-04   -0.17780E-04  2080   0.274E-02    0.119E-02
DAV:   5    -0.898836279858E+03   -0.79541E-06   -0.42720E-05  1792   0.112E-02
  66 F= -.89883628E+03 E0= -.89883628E+03  d E =-.104736E-01  mag=     0.0000
 BRION: g(F)=  0.132E-01 g(S)=  0.000E+00 retain N=  2 mean eig= 0.36
 eig:   0.133  0.584
 bond charge predicted
       N       E                     dE             d eps       ncg     rms          rms(c)
DAV:   1    -0.898848781036E+03   -0.12502E-01   -0.12565E+00  1744   0.175E+00    0.217E-01
DAV:   2    -0.898850657171E+03   -0.18761E-02   -0.22869E-02  1984   0.222E-01    0.134E-01
DAV:   3    -0.898850463592E+03    0.19358E-03   -0.41939E-04  2176   0.389E-02    0.729E-02
DAV:   4    -0.898850422130E+03    0.41461E-04   -0.32958E-04  2048   0.364E-02    0.161E-02
DAV:   5    -0.898850423778E+03   -0.16479E-05   -0.78763E-05  2096   0.150E-02
  67 F= -.89885042E+03 E0= -.89885042E+03  d E =-.141439E-01  mag=    -0.0000
 BRION: g(F)=  0.141E-01 g(S)=  0.000E+00 retain N=  2 mean eig= 0.48
 eig:   0.134  0.819
 bond charge predicted
       N       E                     dE             d eps       ncg     rms          rms(c)
DAV:   1    -0.898849775847E+03    0.64628E-03   -0.58114E-02  1760   0.390E-01    0.464E-02
DAV:   2    -0.898849830889E+03   -0.55043E-04   -0.16510E-03  2176   0.658E-02    0.345E-02
DAV:   3    -0.898849782722E+03    0.48168E-04   -0.69927E-05  2192   0.202E-02    0.210E-02
DAV:   4    -0.898849757627E+03    0.25095E-04   -0.39780E-05  2000   0.176E-02    0.621E-03
DAV:   5    -0.898849754283E+03    0.33442E-05   -0.18587E-05  1728   0.117E-02
  68 F= -.89884975E+03 E0= -.89884975E+03  d E =0.669496E-03  mag=     0.0000
 BRION: g(F)=  0.144E-01 g(S)=  0.000E+00 retain N=  2 mean eig= 0.60
 eig:   0.235  0.965
 bond charge predicted
       N       E                     dE             d eps       ncg     rms          rms(c)
DAV:   1    -0.898857599545E+03   -0.78419E-02   -0.44316E-01  1744   0.105E+00    0.128E-01
DAV:   2    -0.898858250205E+03   -0.65066E-03   -0.82168E-03  2000   0.135E-01    0.805E-02
DAV:   3    -0.898858167035E+03    0.83170E-04   -0.16311E-04  2176   0.261E-02    0.439E-02
DAV:   4    -0.898858145122E+03    0.21913E-04   -0.12859E-04  2144   0.249E-02    0.935E-03
DAV:   5    -0.898858146391E+03   -0.12682E-05   -0.35094E-05  1696   0.103E-02
  69 F= -.89885815E+03 E0= -.89885815E+03  d E =-.839211E-02  mag=     0.0000
 BRION: g(F)=  0.124E-01 g(S)=  0.000E+00 retain N=  2 mean eig= 0.72
 eig:   0.206  1.241
 bond charge predicted
       N       E                     dE             d eps       ncg     rms          rms(c)
DAV:   1    -0.898866495901E+03   -0.83508E-02   -0.52354E-01  1744   0.113E+00    0.141E-01
DAV:   2    -0.898867279595E+03   -0.78369E-03   -0.95366E-03  1984   0.143E-01    0.870E-02
DAV:   3    -0.898867199845E+03    0.79750E-04   -0.17523E-04  2176   0.250E-02    0.471E-02
DAV:   4    -0.898867183606E+03    0.16239E-04   -0.13745E-04  2048   0.230E-02    0.106E-02
DAV:   5    -0.898867184027E+03   -0.42078E-06   -0.30166E-05  1600   0.944E-03
  70 F= -.89886718E+03 E0= -.89886718E+03  d E =-.903764E-02  mag=    -0.0000
 BRION: g(F)=  0.120E-01 g(S)=  0.000E+00 retain N=  2 mean eig= 0.30
 eig:   0.060  0.544
 bond charge predicted
       N       E                     dE             d eps       ncg     rms          rms(c)
DAV:   1    -0.898879427845E+03   -0.12244E-01   -0.12933E+00  1744   0.177E+00    0.220E-01
DAV:   2    -0.898881349352E+03   -0.19215E-02   -0.23346E-02  1968   0.223E-01    0.137E-01
DAV:   3    -0.898881154578E+03    0.19477E-03   -0.41988E-04  2176   0.390E-02    0.739E-02
DAV:   4    -0.898881115450E+03    0.39128E-04   -0.34263E-04  2048   0.364E-02    0.167E-02
DAV:   5    -0.898881116483E+03   -0.10330E-05   -0.77213E-05  2080   0.148E-02
  71 F= -.89888112E+03 E0= -.89888112E+03  d E =-.139325E-01  mag=    -0.0000
 BRION: g(F)=  0.127E-01 g(S)=  0.000E+00 retain N=  2 mean eig= 0.46
 eig:   0.460  0.460
 bond charge predicted
       N       E                     dE             d eps       ncg     rms          rms(c)
DAV:   1    -0.898882126458E+03   -0.10110E-02   -0.62283E-02  1760   0.409E-01    0.486E-02
DAV:   2    -0.898882194970E+03   -0.68512E-04   -0.17474E-03  2160   0.681E-02    0.347E-02
DAV:   3    -0.898882148499E+03    0.46471E-04   -0.68655E-05  2176   0.202E-02    0.213E-02
DAV:   4    -0.898882123539E+03    0.24960E-04   -0.40641E-05  2016   0.183E-02    0.617E-03
DAV:   5    -0.898882120678E+03    0.28607E-05   -0.19485E-05  1760   0.117E-02
  72 F= -.89888212E+03 E0= -.89888212E+03  d E =-.100420E-02  mag=     0.0000
 BRION: g(F)=  0.138E-01 g(S)=  0.000E+00 retain N=  2 mean eig= 0.54
 eig:   0.250  0.829
 bond charge predicted
       N       E                     dE             d eps       ncg     rms          rms(c)
DAV:   1    -0.898887770789E+03   -0.56473E-02   -0.24669E-01  1744   0.784E-01    0.965E-02
DAV:   2    -0.898888127696E+03   -0.35691E-03   -0.47961E-03  2080   0.105E-01    0.614E-02
DAV:   3    -0.898888069157E+03    0.58539E-04   -0.11334E-04  2176   0.229E-02    0.340E-02
DAV:   4    -0.898888050650E+03    0.18507E-04   -0.81477E-05  2128   0.208E-02    0.759E-03
DAV:   5    -0.898888051380E+03   -0.72981E-06   -0.24230E-05  1616   0.923E-03
  73 F= -.89888805E+03 E0= -.89888805E+03  d E =-.593070E-02  mag=     0.0000
 BRION: g(F)=  0.117E-01 g(S)=  0.000E+00 retain N=  2 mean eig= 0.80
 eig:   0.197  1.406
 bond charge predicted
       N       E                     dE             d eps       ncg     rms          rms(c)
DAV:   1    -0.898895566950E+03   -0.75163E-02   -0.44733E-01  1744   0.104E+00    0.130E-01
DAV:   2    -0.898896231585E+03   -0.66463E-03   -0.81083E-03  1968   0.132E-01    0.805E-02
DAV:   3    -0.898896162122E+03    0.69463E-04   -0.14855E-04  2176   0.234E-02    0.434E-02
DAV:   4    -0.898896148037E+03    0.14085E-04   -0.11874E-04  2048   0.214E-02    0.977E-03
DAV:   5    -0.898896148407E+03   -0.37043E-06   -0.26086E-05  1424   0.876E-03
  74 F= -.89889615E+03 E0= -.89889615E+03  d E =-.809703E-02  mag=    -0.0000
 BRION: g(F)=  0.110E-01 g(S)=  0.000E+00 retain N=  2 mean eig= 0.29
 eig:   0.055  0.518
 bond charge predicted
       N       E                     dE             d eps       ncg     rms          rms(c)
DAV:   1    -0.898907378296E+03   -0.11230E-01   -0.11503E+00  1744   0.167E+00    0.208E-01
DAV:   2    -0.898909088997E+03   -0.17107E-02   -0.20732E-02  1984   0.210E-01    0.129E-01
DAV:   3    -0.898908919104E+03    0.16989E-03   -0.36740E-04  2160   0.356E-02    0.694E-02
DAV:   4    -0.898908886054E+03    0.33050E-04   -0.29691E-04  2016   0.336E-02    0.154E-02
DAV:   5    -0.898908886904E+03   -0.85032E-06   -0.65839E-05  1984   0.135E-02
  75 F= -.89890889E+03 E0= -.89890889E+03  d E =-.127385E-01  mag=    -0.0000
 BRION: g(F)=  0.115E-01 g(S)=  0.000E+00 retain N=  2 mean eig= 0.64
 eig:   0.643  0.643
 bond charge predicted
       N       E                     dE             d eps       ncg     rms          rms(c)
DAV:   1    -0.898915123719E+03   -0.62377E-02   -0.38803E-01  1744   0.984E-01    0.122E-01
DAV:   2    -0.898915702579E+03   -0.57886E-03   -0.77119E-03  2064   0.134E-01    0.771E-02
DAV:   3    -0.898915610023E+03    0.92556E-04   -0.17349E-04  2176   0.290E-02    0.432E-02
DAV:   4    -0.898915577389E+03    0.32634E-04   -0.13389E-04  2208   0.284E-02    0.998E-03
DAV:   5    -0.898915578466E+03   -0.10770E-05   -0.47468E-05  2016   0.129E-02
  76 F= -.89891558E+03 E0= -.89891558E+03  d E =-.669156E-02  mag=     0.0000
 BRION: g(F)=  0.135E-01 g(S)=  0.000E+00 retain N=  2 mean eig= 0.38
 eig:   0.136  0.634
 bond charge predicted
       N       E                     dE             d eps       ncg     rms          rms(c)
DAV:   1    -0.898915723085E+03   -0.14570E-03   -0.44750E-02  1776   0.336E-01    0.411E-02
DAV:   2    -0.898915760900E+03   -0.37814E-04   -0.12753E-03  2160   0.575E-02    0.301E-02
DAV:   3    -0.898915722817E+03    0.38083E-04   -0.61128E-05  2192   0.186E-02    0.182E-02
DAV:   4    -0.898915705262E+03    0.17555E-04   -0.28974E-05  1904   0.139E-02    0.554E-03
DAV:   5    -0.898915702329E+03    0.29330E-05   -0.12716E-05  1584   0.982E-03
  77 F= -.89891570E+03 E0= -.89891570E+03  d E =-.123863E-03  mag=    -0.0000
 BRION: g(F)=  0.113E-01 g(S)=  0.000E+00 retain N=  2 mean eig= 0.89
 eig:   0.211  1.560
 bond charge predicted
       N       E                     dE             d eps       ncg     rms          rms(c)
DAV:   1    -0.898923043719E+03   -0.73385E-02   -0.45362E-01  1744   0.105E+00    0.130E-01
DAV:   2    -0.898923709828E+03   -0.66611E-03   -0.81997E-03  1984   0.132E-01    0.813E-02
DAV:   3    -0.898923638149E+03    0.71680E-04   -0.15708E-04  2176   0.235E-02    0.438E-02
DAV:   4    -0.898923622974E+03    0.15175E-04   -0.11634E-04  2064   0.213E-02    0.944E-03
DAV:   5    -0.898923623599E+03   -0.62530E-06   -0.25616E-05  1424   0.856E-03
  78 F= -.89892362E+03 E0= -.89892362E+03  d E =-.792127E-02  mag=    -0.0000
 BRION: g(F)=  0.101E-01 g(S)=  0.000E+00 retain N=  2 mean eig= 0.35
 eig:   0.205  0.490
 bond charge predicted
       N       E                     dE             d eps       ncg     rms          rms(c)
DAV:   1    -0.898933714814E+03   -0.10092E-01   -0.95749E-01  1744   0.152E+00    0.191E-01
DAV:   2    -0.898935137718E+03   -0.14229E-02   -0.17243E-02  1968   0.190E-01    0.118E-01
DAV:   3    -0.898934998174E+03    0.13954E-03   -0.30708E-04  2160   0.327E-02    0.636E-02
DAV:   4    -0.898934972330E+03    0.25844E-04   -0.24615E-04  2016   0.302E-02    0.143E-02
DAV:   5    -0.898934972679E+03   -0.34879E-06   -0.52839E-05  1920   0.123E-02
  79 F= -.89893497E+03 E0= -.89893497E+03  d E =-.113491E-01  mag=    -0.0000
 BRION: g(F)=  0.106E-01 g(S)=  0.000E+00 retain N=  2 mean eig= 0.68
 eig:   0.679  0.679
 bond charge predicted
       N       E                     dE             d eps       ncg     rms          rms(c)
DAV:   1    -0.898945015151E+03   -0.10043E-01   -0.10838E+00  1744   0.162E+00    0.202E-01
DAV:   2    -0.898946618783E+03   -0.16036E-02   -0.19876E-02  1984   0.207E-01    0.126E-01
DAV:   3    -0.898946435253E+03    0.18353E-03   -0.37763E-04  2176   0.379E-02    0.680E-02
DAV:   4    -0.898946392727E+03    0.42525E-04   -0.29763E-04  2144   0.364E-02    0.148E-02
DAV:   5    -0.898946394415E+03   -0.16873E-05   -0.78687E-05  2080   0.151E-02
  80 F= -.89894639E+03 E0= -.89894639E+03  d E =-.114217E-01  mag=     0.0000
 BRION: g(F)=  0.123E-01 g(S)=  0.000E+00 retain N=  2 mean eig= 0.28
 eig:   0.181  0.374
 bond charge predicted
       N       E                     dE             d eps       ncg     rms          rms(c)
DAV:   1    -0.898940239949E+03    0.61528E-02   -0.33084E-01  1744   0.909E-01    0.110E-01
DAV:   2    -0.898940690810E+03   -0.45086E-03   -0.64605E-03  2080   0.123E-01    0.722E-02
DAV:   3    -0.898940596722E+03    0.94088E-04   -0.16473E-04  2176   0.279E-02    0.397E-02
DAV:   4    -0.898940565018E+03    0.31703E-04   -0.11749E-04  2176   0.262E-02    0.818E-03
DAV:   5    -0.898940566611E+03   -0.15926E-05   -0.42741E-05  1968   0.119E-02
  81 F= -.89894057E+03 E0= -.89894057E+03  d E =0.582780E-02  mag=    -0.0000
 BRION: g(F)=  0.111E-01 g(S)=  0.000E+00 retain N=  2 mean eig= 0.66
 eig:   0.249  1.068
 bond charge predicted
       N       E                     dE             d eps       ncg     rms          rms(c)
DAV:   1    -0.898948917014E+03   -0.83520E-02   -0.63805E-01  1744   0.124E+00    0.154E-01
DAV:   2    -0.898949835490E+03   -0.91848E-03   -0.11406E-02  1968   0.156E-01    0.968E-02
DAV:   3    -0.898949732091E+03    0.10340E-03   -0.22111E-04  2176   0.277E-02    0.518E-02
DAV:   4    -0.898949710870E+03    0.21222E-04   -0.16541E-04  2048   0.249E-02    0.110E-02
DAV:   5    -0.898949711845E+03   -0.97501E-06   -0.36673E-05  1680   0.100E-02
  82 F= -.89894971E+03 E0= -.89894971E+03  d E =-.914523E-02  mag=     0.0000
 BRION: g(F)=  0.949E-02 g(S)=  0.000E+00 retain N=  2 mean eig= 0.64
 eig:   0.292  0.990
 bond charge predicted
       N       E                     dE             d eps       ncg     rms          rms(c)
DAV:   1    -0.898958694646E+03   -0.89838E-02   -0.79135E-01  1744   0.138E+00    0.175E-01
DAV:   2    -0.898959878964E+03   -0.11843E-02   -0.14336E-02  1968   0.173E-01    0.108E-01
DAV:   3    -0.898959765363E+03    0.11360E-03   -0.25440E-04  2160   0.295E-02    0.580E-02
DAV:   4    -0.898959744196E+03    0.21166E-04   -0.19899E-04  2000   0.273E-02    0.129E-02
DAV:   5    -0.898959744373E+03   -0.17660E-06   -0.42383E-05  1840   0.110E-02
  83 F= -.89895974E+03 E0= -.89895974E+03  d E =-.100325E-01  mag=     0.0000
 BRION: g(F)=  0.978E-02 g(S)=  0.000E+00 retain N=  2 mean eig= 0.55
 eig:   0.546  0.546
 bond charge predicted
       N       E                     dE             d eps       ncg     rms          rms(c)
DAV:   1    -0.898970426768E+03   -0.10683E-01   -0.13138E+00  1744   0.176E+00    0.222E-01
DAV:   2    -0.898972342564E+03   -0.19158E-02   -0.23546E-02  1968   0.222E-01    0.139E-01
DAV:   3    -0.898972136025E+03    0.20654E-03   -0.44432E-04  2144   0.393E-02    0.739E-02
DAV:   4    -0.898972097561E+03    0.38465E-04   -0.34740E-04  2080   0.361E-02    0.165E-02
DAV:   5    -0.898972098653E+03   -0.10921E-05   -0.79974E-05  2000   0.148E-02
  84 F= -.89897210E+03 E0= -.89897210E+03  d E =-.123543E-01  mag=     0.0000
 BRION: g(F)=  0.107E-01 g(S)=  0.000E+00 retain N=  2 mean eig= 0.60
 eig:   0.219  0.983
 bond charge predicted
       N       E                     dE             d eps       ncg     rms          rms(c)
DAV:   1    -0.898964958336E+03    0.71392E-02   -0.42651E-01  1744   0.102E+00    0.126E-01
DAV:   2    -0.898965540794E+03   -0.58246E-03   -0.81536E-03  2080   0.137E-01    0.817E-02
DAV:   3    -0.898965430322E+03    0.11047E-03   -0.20634E-04  2192   0.305E-02    0.445E-02
DAV:   4    -0.898965395442E+03    0.34880E-04   -0.13845E-04  2192   0.281E-02    0.941E-03
DAV:   5    -0.898965397131E+03   -0.16894E-05   -0.48013E-05  2032   0.126E-02
  85 F= -.89896540E+03 E0= -.89896540E+03  d E =0.670152E-02  mag=    -0.0000
 BRION: g(F)=  0.110E-01 g(S)=  0.000E+00 retain N=  2 mean eig= 0.48
 eig:   0.329  0.630
 bond charge predicted
       N       E                     dE             d eps       ncg     rms          rms(c)
DAV:   1    -0.898973918225E+03   -0.85228E-02   -0.70478E-01  1744   0.130E+00    0.163E-01
DAV:   2    -0.898974934080E+03   -0.10159E-02   -0.12707E-02  1968   0.165E-01    0.103E-01
DAV:   3    -0.898974817662E+03    0.11642E-03   -0.25148E-04  2176   0.296E-02    0.550E-02
DAV:   4    -0.898974792960E+03    0.24702E-04   -0.18313E-04  2064   0.265E-02    0.116E-02
DAV:   5    -0.898974793997E+03   -0.10371E-05   -0.40988E-05  1792   0.107E-02
  86 F= -.89897479E+03 E0= -.89897479E+03  d E =-.939687E-02  mag=    -0.0000
 BRION: g(F)=  0.895E-02 g(S)=  0.000E+00 retain N=  2 mean eig= 0.78
 eig:   0.284  1.281
 bond charge predicted
       N       E                     dE             d eps       ncg     rms          rms(c)
DAV:   1    -0.898981944816E+03   -0.71519E-02   -0.52663E-01  1744   0.112E+00    0.143E-01
DAV:   2    -0.898982724712E+03   -0.77990E-03   -0.95576E-03  1968   0.142E-01    0.883E-02
DAV:   3    -0.898982643366E+03    0.81346E-04   -0.18014E-04  2160   0.255E-02    0.471E-02
DAV:   4    -0.898982627994E+03    0.15372E-04   -0.13615E-04  2064   0.230E-02    0.105E-02
DAV:   5    -0.898982628447E+03   -0.45302E-06   -0.31809E-05  1616   0.961E-03
  87 F= -.89898263E+03 E0= -.89898263E+03  d E =-.783445E-02  mag=     0.0000
 BRION: g(F)=  0.915E-02 g(S)=  0.000E+00 retain N=  3 mean eig= 2.75
 eig:   7.628  0.311  0.311
 bond charge predicted
       N       E                     dE             d eps       ncg     rms          rms(c)
DAV:   1    -0.898991271499E+03   -0.86435E-02   -0.87054E-01  1744   0.144E+00    0.182E-01
DAV:   2    -0.898992540485E+03   -0.12690E-02   -0.15820E-02  1984   0.184E-01    0.114E-01
DAV:   3    -0.898992393447E+03    0.14704E-03   -0.31333E-04  2176   0.349E-02    0.609E-02
DAV:   4    -0.898992362169E+03    0.31278E-04   -0.23721E-04  2096   0.318E-02    0.137E-02
DAV:   5    -0.898992363175E+03   -0.10058E-05   -0.60729E-05  2016   0.134E-02
  88 F= -.89899236E+03 E0= -.89899236E+03  d E =-.973473E-02  mag=    -0.0000
 BRION: g(F)=  0.100E-01 g(S)=  0.000E+00 retain N=  3 mean eig= 0.84
 eig:   1.731  0.343  0.440
 bond charge predicted
       N       E                     dE             d eps       ncg     rms          rms(c)
DAV:   1    -0.898999089254E+03   -0.67271E-02   -0.48400E-01  1744   0.109E+00    0.139E-01
DAV:   2    -0.898999821642E+03   -0.73239E-03   -0.92535E-03  2032   0.143E-01    0.864E-02
DAV:   3    -0.898999732521E+03    0.89121E-04   -0.18071E-04  2192   0.277E-02    0.471E-02
DAV:   4    -0.898999707962E+03    0.24559E-04   -0.13990E-04  2192   0.271E-02    0.102E-02
DAV:   5    -0.898999708736E+03   -0.77365E-06   -0.41089E-05  1840   0.116E-02
  89 F= -.89899971E+03 E0= -.89899971E+03  d E =-.734556E-02  mag=    -0.0000
 BRION: g(F)=  0.983E-02 g(S)=  0.000E+00 retain N=  2 mean eig= 0.50
 eig:   0.163  0.844
 bond charge predicted
       N       E                     dE             d eps       ncg     rms          rms(c)
DAV:   1    -0.898998144469E+03    0.15635E-02   -0.88106E-02  1792   0.483E-01    0.570E-02
DAV:   2    -0.898998232212E+03   -0.87744E-04   -0.23822E-03  2160   0.793E-02    0.412E-02
DAV:   3    -0.898998166534E+03    0.65679E-04   -0.10407E-04  2176   0.248E-02    0.251E-02
DAV:   4    -0.898998132981E+03    0.33553E-04   -0.53026E-05  2080   0.200E-02    0.741E-03
DAV:   5    -0.898998128314E+03    0.46668E-05   -0.25471E-05  1840   0.137E-02
  90 F= -.89899813E+03 E0= -.89899813E+03  d E =0.158042E-02  mag=    -0.0000
 BRION: g(F)=  0.123E-01 g(S)=  0.000E+00 retain N=  3 mean eig= 0.81
 eig:   1.937  0.240  0.240
 bond charge predicted
       N       E                     dE             d eps       ncg     rms          rms(c)
DAV:   1    -0.899001975045E+03   -0.38421E-02   -0.15522E-01  1744   0.627E-01    0.771E-02
DAV:   2    -0.899002182293E+03   -0.20725E-03   -0.32449E-03  2112   0.892E-02    0.506E-02
DAV:   3    -0.899002129679E+03    0.52614E-04   -0.10616E-04  2192   0.240E-02    0.283E-02
DAV:   4    -0.899002111095E+03    0.18585E-04   -0.58179E-05  2128   0.184E-02    0.674E-03
DAV:   5    -0.899002111362E+03   -0.26738E-06   -0.19574E-05  1536   0.922E-03
  91 F= -.89900211E+03 E0= -.89900211E+03  d E =-.398305E-02  mag=    -0.0000
 BRION: g(F)=  0.845E-02 g(S)=  0.000E+00 retain N=  3 mean eig= 2.67
 eig:   7.562  0.158  0.304
 bond charge predicted
       N       E                     dE             d eps       ncg     rms          rms(c)
DAV:   1    -0.899007825241E+03   -0.57141E-02   -0.34237E-01  1744   0.903E-01    0.115E-01
DAV:   2    -0.899008327142E+03   -0.50190E-03   -0.61820E-03  1984   0.114E-01    0.715E-02
DAV:   3    -0.899008273237E+03    0.53905E-04   -0.11736E-04  2160   0.205E-02    0.381E-02
DAV:   4    -0.899008262620E+03    0.10617E-04   -0.88298E-05  2048   0.185E-02    0.845E-03
DAV:   5    -0.899008262769E+03   -0.14900E-06   -0.19502E-05  1328   0.761E-03
  92 F= -.89900826E+03 E0= -.89900826E+03  d E =-.615141E-02  mag=     0.0000
 BRION: g(F)=  0.804E-02 g(S)=  0.000E+00 retain N=  2 mean eig= 0.23
 eig:   0.229  0.229
 bond charge predicted
       N       E                     dE             d eps       ncg     rms          rms(c)
DAV:   1    -0.899015097710E+03   -0.68351E-02   -0.51287E-01  1744   0.110E+00    0.143E-01
DAV:   2    -0.899015858477E+03   -0.76077E-03   -0.93768E-03  1984   0.140E-01    0.884E-02
DAV:   3    -0.899015778779E+03    0.79698E-04   -0.17570E-04  2176   0.254E-02    0.471E-02
DAV:   4    -0.899015762923E+03    0.15856E-04   -0.13079E-04  2096   0.232E-02    0.103E-02
DAV:   5    -0.899015763294E+03   -0.37132E-06   -0.31119E-05  1600   0.968E-03
  93 F= -.89901576E+03 E0= -.89901576E+03  d E =-.750052E-02  mag=     0.0000
 BRION: g(F)=  0.853E-02 g(S)=  0.000E+00 retain N=  3 mean eig= 0.72
 eig:   1.862  0.271  0.013
--------------------------------------------------------
>>>  Job finished at Wed Jun 29 17:00:55 EDT 2022
