>>>  VASP 5.4.4 with BEEF-vdw and vtst
--------------------------------------------------------
>>>  Job information
     SLURM_JOBID=8250619
     SLURM_JOB_NODELIST=cpn-u25-19
     SLURM_NNODES=1
     SLURMTMPDIR=/scratch/8250619
     working directory = /projects/academic/ericwalk/ruthbell/Ads_Ag-SSZ13/CO2_1_Alternate/vtst
--------------------------------------------------------
>>>  Module information
The Intel compilers are in your path. This is adequate for compiling and
running most codes. Source
/util/academic/intel/17.0/compilers_and_libraries_2017/linux/bin/compilervars.sh
for more features. 
 The MKL Libraries are in your library path. This is adequate for compiling and
running most codes. Source $MKL/bin/mklvars.sh" for more features. 
 Intel-MPI is in your path.  This is adequate for compiling and running most codes.  Source the /util/academic/intel/17.0/compilers_and_libraries_2017/linux/mpi/intel64/bin/mpivars.sh file for more features.

Currently Loaded Modules:
  1) intel/17.0   2) mkl/2017.0.1   3) intel-mpi/2017.0.1

 

--------------------------------------------------------
>>>  Running Configuration
NPROCS=16
--------------------------------------------------------
>>>  Job started at Tue Apr 26 16:30:31 EDT 2022
--------------------------------------------------------
 running on   16 total cores
 distrk:  each k-point on   16 cores,    1 groups
 distr:  one band on    4 cores,    4 groups
 using from now: INCAR     
 vasp.5.4.4.18Apr17-6-g9f103f2a35 (build Dec 31 2018 11:41:54) complex          
  
 POSCAR found type information on POSCAR  O  Si Al Ag C 
 POSCAR found :  5 types and     114 ions
 scaLAPACK will be used
 LDA part: xc-table for Pade appr. of Perdew
 POSCAR found type information on POSCAR  O  Si Al Ag C 
 POSCAR found :  5 types and     114 ions
 POSCAR, INCAR and KPOINTS ok, starting setup
 FFT: planning ...
 WAVECAR not read
 WARNING: random wavefunctions but no delay for mixing, default for NELMDL
 entering main loop
       N       E                     dE             d eps       ncg     rms          rms(c)
DAV:   1     0.439565216935E+04    0.43957E+04   -0.26028E+05  1800   0.103E+03
DAV:   2    -0.428297342158E+03   -0.48239E+04   -0.46467E+04  2096   0.296E+02
DAV:   3    -0.948505087851E+03   -0.52021E+03   -0.51657E+03  2104   0.102E+02
DAV:   4    -0.958973286376E+03   -0.10468E+02   -0.10425E+02  2152   0.158E+01
DAV:   5    -0.959247013943E+03   -0.27373E+00   -0.27337E+00  2160   0.236E+00    0.871E+01
DAV:   6    -0.605135494678E+03    0.35411E+03   -0.71585E+02  2008   0.388E+01    0.281E+01
DAV:   7    -0.696446604656E+03   -0.91311E+02   -0.82128E+01  2064   0.123E+01    0.193E+01
DAV:   8    -0.766737049199E+03   -0.70290E+02   -0.30628E+01  2032   0.791E+00    0.110E+01
DAV:   9    -0.844100716824E+03   -0.77364E+02   -0.58519E+01  2040   0.898E+00    0.491E+00
DAV:  10    -0.857529153149E+03   -0.13428E+02   -0.79652E+00  2112   0.363E+00    0.353E+00
DAV:  11    -0.874153884648E+03   -0.16625E+02   -0.11489E+01  1880   0.404E+00    0.171E+00
DAV:  12    -0.876130746572E+03   -0.19769E+01   -0.10228E+00  2000   0.132E+00    0.925E-01
DAV:  13    -0.877149747817E+03   -0.10190E+01   -0.41583E-01  1888   0.841E-01    0.426E-01
DAV:  14    -0.877333135882E+03   -0.18339E+00   -0.73484E-02  1936   0.352E-01    0.246E-01
DAV:  15    -0.877350315630E+03   -0.17180E-01   -0.13229E-02  2040   0.233E-01    0.126E-01
DAV:  16    -0.877356808207E+03   -0.64926E-02   -0.43561E-03  2048   0.138E-01    0.869E-02
DAV:  17    -0.877361411183E+03   -0.46030E-02   -0.20529E-03  2000   0.995E-02    0.415E-02
DAV:  18    -0.877364935054E+03   -0.35239E-02   -0.12603E-03  1984   0.733E-02    0.435E-02
DAV:  19    -0.877365349139E+03   -0.41408E-03   -0.33780E-04  2080   0.423E-02    0.217E-02
DAV:  20    -0.877365737369E+03   -0.38823E-03   -0.23187E-04  2008   0.328E-02    0.138E-02
DAV:  21    -0.877366118669E+03   -0.38130E-03   -0.10545E-04  2000   0.227E-02    0.123E-02
DAV:  22    -0.877366248272E+03   -0.12960E-03   -0.60581E-05  2048   0.168E-02    0.521E-03
DAV:  23    -0.877366342866E+03   -0.94594E-04   -0.37257E-05  2024   0.126E-02    0.325E-03
DAV:  24    -0.877366402607E+03   -0.59740E-04   -0.14663E-05  2056   0.738E-03    0.269E-03
DAV:  25    -0.877366429476E+03   -0.26869E-04   -0.74285E-06  2080   0.509E-03    0.149E-03
DAV:  26    -0.877366445822E+03   -0.16347E-04   -0.45518E-06  2008   0.374E-03    0.137E-03
DAV:  27    -0.877366449148E+03   -0.33257E-05   -0.16947E-06  2096   0.227E-03    0.123E-03
DAV:  28    -0.877366449715E+03   -0.56707E-06   -0.73479E-07  2088   0.145E-03    0.120E-03
DAV:  29    -0.877366449666E+03    0.48734E-07   -0.34779E-07  2048   0.101E-03    0.118E-03
DAV:  30    -0.877366449707E+03   -0.40382E-07   -0.10344E-07  1984   0.537E-04    0.117E-03
DAV:  31    -0.877366449743E+03   -0.35907E-07   -0.38392E-08  1960   0.332E-04    0.117E-03
DAV:  32    -0.877366449757E+03   -0.14290E-07   -0.98453E-09  1832   0.177E-04    0.116E-03
DAV:  33    -0.877366449769E+03   -0.11802E-07   -0.52788E-09  1792   0.128E-04    0.116E-03
DAV:  34    -0.877366449772E+03   -0.28740E-08   -0.16647E-09  1696   0.762E-05
   1 F= -.87736645E+03 E0= -.87736645E+03  d E =-.877366E+03  mag=    -0.0000
quench:  g(F)=  0.000E+00 g(S)=  0.000E+00 dE (1.order)= 0.000E+00
 bond charge predicted
       N       E                     dE             d eps       ncg     rms          rms(c)
DAV:   1    -0.877366434281E+03    0.15488E-04   -0.53812E-03  1792   0.539E-02    0.117E-02
DAV:   2    -0.877366437424E+03   -0.31432E-05   -0.52508E-05  2016   0.496E-03    0.650E-03
DAV:   3    -0.877366437047E+03    0.37679E-06   -0.14591E-06  2048   0.121E-03    0.260E-03
DAV:   4    -0.877366437116E+03   -0.69223E-07   -0.35797E-07  1880   0.710E-04    0.133E-03
DAV:   5    -0.877366437133E+03   -0.16502E-07   -0.32182E-08  1992   0.263E-04    0.120E-03
DAV:   6    -0.877366437142E+03   -0.91895E-08   -0.40528E-09  1488   0.179E-04
   2 F= -.87736644E+03 E0= -.87736644E+03  d E =0.126295E-04  mag=    -0.0000
quench:  g(F)=  0.000E+00 g(S)=  0.000E+00 dE (1.order)= 0.000E+00
 bond charge predicted
       N       E                     dE             d eps       ncg     rms          rms(c)
DAV:   1    -0.877366373773E+03    0.63360E-04   -0.10769E-02  1784   0.764E-02    0.147E-02
DAV:   2    -0.877366380170E+03   -0.63971E-05   -0.95123E-05  1968   0.669E-03    0.823E-03
DAV:   3    -0.877366379511E+03    0.65964E-06   -0.19033E-06  2040   0.138E-03    0.336E-03
DAV:   4    -0.877366379628E+03   -0.11768E-06   -0.69049E-07  1888   0.878E-04    0.141E-03
DAV:   5    -0.877366379648E+03   -0.19485E-07   -0.73514E-08  1952   0.326E-04    0.123E-03
DAV:   6    -0.877366379663E+03   -0.15469E-07   -0.15007E-08  1616   0.250E-04    0.117E-03
DAV:   7    -0.877366379664E+03   -0.49477E-09   -0.14581E-08  1632   0.219E-04
   3 F= -.87736638E+03 E0= -.87736638E+03  d E =0.574784E-04  mag=    -0.0000
quench:  g(F)=  0.000E+00 g(S)=  0.000E+00 dE (1.order)= 0.000E+00
 bond charge predicted
       N       E                     dE             d eps       ncg     rms          rms(c)
DAV:   1    -0.877366477086E+03   -0.97423E-04   -0.10754E-02  1760   0.766E-02    0.170E-02
DAV:   2    -0.877366484875E+03   -0.77886E-05   -0.12642E-04  2008   0.745E-03    0.941E-03
DAV:   3    -0.877366483704E+03    0.11715E-05   -0.24923E-06  2000   0.158E-03    0.428E-03
DAV:   4    -0.877366483618E+03    0.86002E-07   -0.10317E-06  1936   0.115E-03    0.150E-03
DAV:   5    -0.877366483639E+03   -0.21319E-07   -0.19215E-07  1792   0.623E-04    0.126E-03
DAV:   6    -0.877366483643E+03   -0.37180E-08   -0.13465E-07  1784   0.632E-04    0.118E-03
DAV:   7    -0.877366483642E+03    0.93860E-09   -0.17393E-07  1776   0.697E-04    0.117E-03
DAV:   8    -0.877366483607E+03    0.35026E-07   -0.99549E-08  1728   0.513E-04    0.116E-03
DAV:   9    -0.877366483598E+03    0.81345E-08   -0.95468E-09  1632   0.205E-04
   4 F= -.87736648E+03 E0= -.87736648E+03  d E =-.103935E-03  mag=     0.0000
quench:  g(F)=  0.000E+00 g(S)=  0.000E+00 dE (1.order)= 0.000E+00
 bond charge predicted
       N       E                     dE             d eps       ncg     rms          rms(c)
DAV:   1    -0.877366417919E+03    0.65688E-04   -0.10807E-02  1760   0.793E-02    0.167E-02
DAV:   2    -0.877366428982E+03   -0.11063E-04   -0.15596E-04  2016   0.808E-03    0.894E-03
DAV:   3    -0.877366428045E+03    0.93721E-06   -0.22693E-06  1936   0.149E-03    0.460E-03
DAV:   4    -0.877366427962E+03    0.83222E-07   -0.10007E-06  1968   0.950E-04    0.148E-03
DAV:   5    -0.877366427984E+03   -0.22679E-07   -0.18192E-07  1960   0.409E-04    0.126E-03
DAV:   6    -0.877366427974E+03    0.10114E-07   -0.52406E-09  1672   0.103E-04    0.120E-03
DAV:   7    -0.877366427962E+03    0.11882E-07   -0.28136E-09  1360   0.109E-04    0.117E-03
DAV:   8    -0.877366427956E+03    0.60973E-08   -0.85097E-10  1328   0.647E-05
   5 F= -.87736643E+03 E0= -.87736643E+03  d E =0.556422E-04  mag=     0.0000
quench:  g(F)=  0.000E+00 g(S)=  0.000E+00 dE (1.order)= 0.000E+00
 bond charge predicted
       N       E                     dE             d eps       ncg     rms          rms(c)
DAV:   1    -0.877366404673E+03    0.23289E-04   -0.10897E-02  1760   0.788E-02    0.127E-02
DAV:   2    -0.877366410133E+03   -0.54592E-05   -0.85091E-05  2032   0.683E-03    0.728E-03
DAV:   3    -0.877366409260E+03    0.87215E-06   -0.19952E-06  2112   0.163E-03    0.318E-03
DAV:   4    -0.877366409201E+03    0.59656E-07   -0.70325E-07  1936   0.101E-03    0.143E-03
DAV:   5    -0.877366409205E+03   -0.46857E-08   -0.11242E-07  2056   0.396E-04    0.130E-03
DAV:   6    -0.877366409190E+03    0.15207E-07   -0.15993E-08  1760   0.343E-04    0.118E-03
DAV:   7    -0.877366409181E+03    0.96625E-08   -0.46021E-09  1584   0.189E-04
   6 F= -.87736641E+03 E0= -.87736641E+03  d E =0.187757E-04  mag=    -0.0000
quench:  g(F)=  0.000E+00 g(S)=  0.000E+00 dE (1.order)= 0.000E+00
 bond charge predicted
       N       E                     dE             d eps       ncg     rms          rms(c)
DAV:   1    -0.877366443307E+03   -0.34117E-04   -0.10943E-02  1760   0.791E-02    0.157E-02
DAV:   2    -0.877366449830E+03   -0.65229E-05   -0.10758E-04  2040   0.755E-03    0.878E-03
DAV:   3    -0.877366448630E+03    0.11999E-05   -0.27496E-06  2120   0.173E-03    0.389E-03
DAV:   4    -0.877366448523E+03    0.10629E-06   -0.88353E-07  1832   0.107E-03    0.150E-03
DAV:   5    -0.877366448543E+03   -0.19689E-07   -0.14416E-07  1808   0.507E-04    0.130E-03
DAV:   6    -0.877366448563E+03   -0.19412E-07   -0.54459E-08  1696   0.438E-04    0.118E-03
DAV:   7    -0.877366448567E+03   -0.42928E-08   -0.54698E-08  1664   0.417E-04
   7 F= -.87736645E+03 E0= -.87736645E+03  d E =-.393863E-04  mag=     0.0000
quench:  g(F)=  0.000E+00 g(S)=  0.000E+00 dE (1.order)= 0.000E+00
 bond charge predicted
       N       E                     dE             d eps       ncg     rms          rms(c)
DAV:   1    -0.877366411806E+03    0.36757E-04   -0.77912E-03  1760   0.647E-02    0.164E-02
DAV:   2    -0.877366420742E+03   -0.89359E-05   -0.12241E-04  1888   0.746E-03    0.117E-02
DAV:   3    -0.877366419210E+03    0.15318E-05   -0.20878E-06  2120   0.194E-03    0.620E-03
DAV:   4    -0.877366418686E+03    0.52401E-06   -0.19397E-06  1960   0.190E-03    0.155E-03
DAV:   5    -0.877366418697E+03   -0.10477E-07   -0.30535E-07  1816   0.774E-04    0.138E-03
DAV:   6    -0.877366418720E+03   -0.23734E-07   -0.10069E-07  1744   0.631E-04    0.120E-03
DAV:   7    -0.877366418717E+03    0.30050E-08   -0.13505E-07  1696   0.717E-04    0.117E-03
DAV:   8    -0.877366418786E+03   -0.68278E-07   -0.22897E-07  1712   0.811E-04    0.117E-03
DAV:   9    -0.877366418688E+03    0.97083E-07   -0.10848E-07  1712   0.588E-04    0.117E-03
DAV:  10    -0.877366418688E+03    0.30559E-09   -0.28777E-09  1776   0.146E-04
   8 F= -.87736642E+03 E0= -.87736642E+03  d E =0.298786E-04  mag=     0.0000
quench:  g(F)=  0.000E+00 g(S)=  0.000E+00 dE (1.order)= 0.000E+00
 bond charge predicted
       N       E                     dE             d eps       ncg     rms          rms(c)
DAV:   1    -0.877366355589E+03    0.63100E-04   -0.41636E-03  1760   0.343E-02    0.148E-02
DAV:   2    -0.877366358416E+03   -0.28273E-05   -0.42685E-05  1840   0.460E-03    0.102E-02
DAV:   3    -0.877366357928E+03    0.48838E-06   -0.14856E-06  2016   0.170E-03    0.448E-03
DAV:   4    -0.877366357837E+03    0.90651E-07   -0.87942E-07  1952   0.127E-03    0.180E-03
DAV:   5    -0.877366357820E+03    0.17179E-07   -0.11525E-07  2136   0.446E-04    0.133E-03
DAV:   6    -0.877366357818E+03    0.24738E-08   -0.31470E-08  1872   0.279E-04
   9 F= -.87736636E+03 E0= -.87736636E+03  d E =0.608706E-04  mag=    -0.0000
quench:  g(F)=  0.000E+00 g(S)=  0.000E+00 dE (1.order)= 0.000E+00
 bond charge predicted
       N       E                     dE             d eps       ncg     rms          rms(c)
DAV:   1    -0.877366456931E+03   -0.99111E-04   -0.42161E-03  1760   0.358E-02    0.179E-02
DAV:   2    -0.877366460078E+03   -0.31463E-05   -0.62455E-05  1872   0.559E-03    0.130E-02
DAV:   3    -0.877366458830E+03    0.12474E-05   -0.28069E-06  2160   0.228E-03    0.549E-03
DAV:   4    -0.877366458583E+03    0.24751E-06   -0.15776E-06  1984   0.169E-03    0.225E-03
DAV:   5    -0.877366458539E+03    0.44056E-07   -0.21759E-07  2104   0.627E-04    0.144E-03
DAV:   6    -0.877366458538E+03    0.87311E-09   -0.57248E-08  2008   0.361E-04
  10 F= -.87736646E+03 E0= -.87736646E+03  d E =-.100720E-03  mag=    -0.0000
quench:  g(F)=  0.000E+00 g(S)=  0.000E+00 dE (1.order)= 0.000E+00
--------------------------------------------------------
>>>  Job finished at Tue Apr 26 17:07:21 EDT 2022
