 vasp.5.4.4.18Apr17-6-g9f103f2a35 (build Dec 31 2018 11:41:54) complex          
  
 executed on             LinuxIFC date 2022.04.26  16:30:32
 running on   16 total cores
 distrk:  each k-point on   16 cores,    1 groups
 distr:  one band on NCORES_PER_BAND=   4 cores,    4 groups


--------------------------------------------------------------------------------------------------------


 INCAR:
 POTCAR:   PAW_PBE O 08Apr2002                    
 POTCAR:   PAW_PBE Si 05Jan2001                   
 POTCAR:   PAW_PBE Al 04Jan2001                   
 POTCAR:   PAW_PBE Ag 06Sep2000                   
 POTCAR:   PAW_PBE C 08Apr2002                    
 POTCAR:   PAW_PBE O 08Apr2002                    
   VRHFIN =O: s2p4                                                              
   LEXCH  = PE                                                                  
   EATOM  =   432.3788 eV,   31.7789 Ry                                         
                                                                                
   TITEL  = PAW_PBE O 08Apr2002                                                 
   LULTRA =        F    use ultrasoft PP ?                                      
   IUNSCR =        0    unscreen: 0-lin 1-nonlin 2-no                           
   RPACOR =     .000    partial core radius                                     
   POMASS =   16.000; ZVAL   =    6.000    mass and valenz                      
   RCORE  =    1.520    outmost cutoff radius                                   
   RWIGS  =    1.550; RWIGS  =     .820    wigner-seitz radius (au A)           
   ENMAX  =  400.000; ENMIN  =  300.000 eV                                      
   ICORE  =        2    local potential                                         
   LCOR   =        T    correct aug charges                                     
   LPAW   =        T    paw PP                                                  
   EAUG   =  605.392                                                            
   DEXC   =     .000                                                            
   RMAX   =    2.264    core radius for proj-oper                               
   RAUG   =    1.300    factor for augmentation sphere                          
   RDEP   =    1.550    radius for radial grids                                 
   QCUT   =   -5.520; QGAM   =   11.041    optimization parameters              
                                                                                
   Description                                                                  
     l     E      TYP  RCUT    TYP  RCUT                                        
     0   .000     23  1.200                                                     
     0  -.700     23  1.200                                                     
     1   .000     23  1.520                                                     
     1   .600     23  1.520                                                     
     2   .000      7  1.500                                                     
  local pseudopotential read in
  atomic valenz-charges read in
  non local Contribution for L=           0  read in
    real space projection operators read in
  non local Contribution for L=           0  read in
    real space projection operators read in
  non local Contribution for L=           1  read in
    real space projection operators read in
  non local Contribution for L=           1  read in
    real space projection operators read in
    PAW grid and wavefunctions read in
 
   number of l-projection  operators is LMAX  =           4
   number of lm-projection operators is LMMAX =           8
 
 POTCAR:   PAW_PBE Si 05Jan2001                   
   VRHFIN =Si: s2p2                                                             
   LEXCH  = PE                                                                  
   EATOM  =   103.0669 eV,    7.5752 Ry                                         
                                                                                
   TITEL  = PAW_PBE Si 05Jan2001                                                
   LULTRA =        F    use ultrasoft PP ?                                      
   IUNSCR =        1    unscreen: 0-lin 1-nonlin 2-no                           
   RPACOR =    1.500    partial core radius                                     
   POMASS =   28.085; ZVAL   =    4.000    mass and valenz                      
   RCORE  =    1.900    outmost cutoff radius                                   
   RWIGS  =    2.480; RWIGS  =    1.312    wigner-seitz radius (au A)           
   ENMAX  =  245.345; ENMIN  =  184.009 eV                                      
   ICORE  =        2    local potential                                         
   LCOR   =        T    correct aug charges                                     
   LPAW   =        T    paw PP                                                  
   EAUG   =  322.069                                                            
   DEXC   =    -.007                                                            
   RMAX   =    2.944    core radius for proj-oper                               
   RAUG   =    1.300    factor for augmentation sphere                          
   RDEP   =    1.993    radius for radial grids                                 
   QCUT   =   -4.246; QGAM   =    8.493    optimization parameters              
                                                                                
   Description                                                                  
     l     E      TYP  RCUT    TYP  RCUT                                        
     0   .000     23  1.900                                                     
     0   .000     23  1.900                                                     
     1   .000     23  1.900                                                     
     1   .000     23  1.900                                                     
     2   .000      7  1.900                                                     
  local pseudopotential read in
  partial core-charges read in
  atomic valenz-charges read in
  non local Contribution for L=           0  read in
    real space projection operators read in
  non local Contribution for L=           0  read in
    real space projection operators read in
  non local Contribution for L=           1  read in
    real space projection operators read in
  non local Contribution for L=           1  read in
    real space projection operators read in
    PAW grid and wavefunctions read in
 
   number of l-projection  operators is LMAX  =           4
   number of lm-projection operators is LMMAX =           8
 
 POTCAR:   PAW_PBE Al 04Jan2001                   
   VRHFIN =Al: s2p1                                                             
   LEXCH  = PE                                                                  
   EATOM  =    53.5387 eV,    3.9350 Ry                                         
                                                                                
   TITEL  = PAW_PBE Al 04Jan2001                                                
   LULTRA =        F    use ultrasoft PP ?                                      
   IUNSCR =        1    unscreen: 0-lin 1-nonlin 2-no                           
   RPACOR =    1.500    partial core radius                                     
   POMASS =   26.982; ZVAL   =    3.000    mass and valenz                      
   RCORE  =    1.900    outmost cutoff radius                                   
   RWIGS  =    2.650; RWIGS  =    1.402    wigner-seitz radius (au A)           
   ENMAX  =  240.300; ENMIN  =  180.225 eV                                      
   ICORE  =        2    local potential                                         
   LCOR   =        T    correct aug charges                                     
   LPAW   =        T    paw PP                                                  
   EAUG   =  291.052                                                            
   DEXC   =    -.041                                                            
   RMAX   =    2.974    core radius for proj-oper                               
   RAUG   =    1.300    factor for augmentation sphere                          
   RDEP   =    1.966    radius for radial grids                                 
   QCUT   =   -4.203; QGAM   =    8.405    optimization parameters              
                                                                                
   Description                                                                  
     l     E      TYP  RCUT    TYP  RCUT                                        
     0   .000     23  1.900                                                     
     0   .000     23  1.900                                                     
     1   .000     23  1.900                                                     
     1  1.000     23  1.900                                                     
     2   .000      7  1.900                                                     
  local pseudopotential read in
  partial core-charges read in
  atomic valenz-charges read in
  non local Contribution for L=           0  read in
    real space projection operators read in
  non local Contribution for L=           0  read in
    real space projection operators read in
  non local Contribution for L=           1  read in
    real space projection operators read in
  non local Contribution for L=           1  read in
    real space projection operators read in
    PAW grid and wavefunctions read in
 
   number of l-projection  operators is LMAX  =           4
   number of lm-projection operators is LMMAX =           8
 
 POTCAR:   PAW_PBE Ag 06Sep2000                   
   VRHFIN =Ag : s1 d10                                                          
   LEXCH  = PE                                                                  
   EATOM  =  1037.4134 eV,   76.2477 Ry                                         
                                                                                
   TITEL  = PAW_PBE Ag 06Sep2000                                                
   LULTRA =        F    use ultrasoft PP ?                                      
   IUNSCR =        1    unscreen: 0-lin 1-nonlin 2-no                           
   RPACOR =    2.000    partial core radius                                     
   POMASS =  107.868; ZVAL   =   11.000    mass and valenz                      
   RCORE  =    2.400    outmost cutoff radius                                   
   RWIGS  =    2.840; RWIGS  =    1.503    wigner-seitz radius (au A)           
   ENMAX  =  249.846; ENMIN  =  187.385 eV                                      
   RCLOC  =    1.962    cutoff for local pot                                    
   LCOR   =        T    correct aug charges                                     
   LPAW   =        T    paw PP                                                  
   EAUG   =  412.496                                                            
   DEXC   =    -.047                                                            
   RMAX   =    2.917    core radius for proj-oper                               
   RAUG   =    1.300    factor for augmentation sphere                          
   RDEP   =    2.416    radius for radial grids                                 
   QCUT   =   -4.285; QGAM   =    8.570    optimization parameters              
                                                                                
   Description                                                                  
     l     E      TYP  RCUT    TYP  RCUT                                        
     2   .000     23  2.400                                                     
     2   .000     23  2.400                                                     
     0   .000     23  2.400                                                     
     0   .000     23  2.400                                                     
     1  -.200     23  2.400                                                     
     1  1.500     23  2.400                                                     
     3   .000      7   .000                                                     
  local pseudopotential read in
  partial core-charges read in
  atomic valenz-charges read in
  non local Contribution for L=           2  read in
    real space projection operators read in
  non local Contribution for L=           2  read in
    real space projection operators read in
  non local Contribution for L=           0  read in
    real space projection operators read in
  non local Contribution for L=           0  read in
    real space projection operators read in
  non local Contribution for L=           1  read in
    real space projection operators read in
  non local Contribution for L=           1  read in
    real space projection operators read in
    PAW grid and wavefunctions read in
 
   number of l-projection  operators is LMAX  =           6
   number of lm-projection operators is LMMAX =          18
 
 POTCAR:   PAW_PBE C 08Apr2002                    
   VRHFIN =C: s2p2                                                              
   LEXCH  = PE                                                                  
   EATOM  =   147.1560 eV,   10.8157 Ry                                         
                                                                                
   TITEL  = PAW_PBE C 08Apr2002                                                 
   LULTRA =        F    use ultrasoft PP ?                                      
   IUNSCR =        0    unscreen: 0-lin 1-nonlin 2-no                           
   RPACOR =     .000    partial core radius                                     
   POMASS =   12.011; ZVAL   =    4.000    mass and valenz                      
   RCORE  =    1.500    outmost cutoff radius                                   
   RWIGS  =    1.630; RWIGS  =     .863    wigner-seitz radius (au A)           
   ENMAX  =  400.000; ENMIN  =  300.000 eV                                      
   ICORE  =        2    local potential                                         
   LCOR   =        T    correct aug charges                                     
   LPAW   =        T    paw PP                                                  
   EAUG   =  644.873                                                            
   DEXC   =     .000                                                            
   RMAX   =    2.266    core radius for proj-oper                               
   RAUG   =    1.300    factor for augmentation sphere                          
   RDEP   =    1.501    radius for radial grids                                 
   RDEPT  =    1.300    core radius for aug-charge                              
   QCUT   =   -5.516; QGAM   =   11.032    optimization parameters              
                                                                                
   Description                                                                  
     l     E      TYP  RCUT    TYP  RCUT                                        
     0   .000     23  1.200                                                     
     0   .000     23  1.200                                                     
     1   .000     23  1.500                                                     
     1  2.500     23  1.500                                                     
     2   .000      7  1.500                                                     
  local pseudopotential read in
  atomic valenz-charges read in
  non local Contribution for L=           0  read in
    real space projection operators read in
  non local Contribution for L=           0  read in
    real space projection operators read in
  non local Contribution for L=           1  read in
    real space projection operators read in
  non local Contribution for L=           1  read in
    real space projection operators read in
    PAW grid and wavefunctions read in
 
   number of l-projection  operators is LMAX  =           4
   number of lm-projection operators is LMMAX =           8
 
 Optimization of the real space projectors (new method)

 maximal supplied QI-value         = 24.76
 optimisation between [QCUT,QGAM] = [ 10.15, 20.30] = [ 28.85,115.39] Ry 
 Optimized for a Real-space Cutoff    1.51 Angstroem

   l    n(q)    QCUT    max X(q) W(low)/X(q) W(high)/X(q)  e(spline) 
   0      9    10.150     4.192    0.32E-04    0.13E-04    0.13E-06
   0      9    10.150     8.473    0.18E-03    0.20E-03    0.43E-06
   1      9    10.150     2.474    0.32E-04    0.33E-04    0.64E-07
   1      9    10.150     3.912    0.13E-03    0.16E-03    0.33E-06
 Optimization of the real space projectors (new method)

 maximal supplied QI-value         = 19.84
 optimisation between [QCUT,QGAM] = [ 10.12, 20.44] = [ 28.68,116.96] Ry 
 Optimized for a Real-space Cutoff    1.38 Angstroem

   l    n(q)    QCUT    max X(q) W(low)/X(q) W(high)/X(q)  e(spline) 
   0      8    10.119     8.708    0.16E-04    0.67E-05    0.60E-08
   0      8    10.119   106.241    0.56E-04    0.11E-03    0.54E-07
   1      8    10.119     5.901    0.16E-04    0.16E-05    0.22E-07
   1      8    10.119    73.241    0.22E-03    0.17E-03    0.18E-06
 Optimization of the real space projectors (new method)

 maximal supplied QI-value         = 19.84
 optimisation between [QCUT,QGAM] = [ 10.12, 20.44] = [ 28.68,116.96] Ry 
 Optimized for a Real-space Cutoff    1.26 Angstroem

   l    n(q)    QCUT    max X(q) W(low)/X(q) W(high)/X(q)  e(spline) 
   0      8    10.119    13.410    0.28E-04    0.17E-04    0.51E-08
   0      8    10.119   140.052    0.10E-03    0.16E-03    0.42E-07
   1      7    10.119     9.624    0.38E-04    0.42E-05    0.15E-07
   1      7    10.119    53.353    0.23E-03    0.17E-03    0.13E-06
 Optimization of the real space projectors (new method)

 maximal supplied QI-value         = 15.68
 optimisation between [QCUT,QGAM] = [ 10.20, 20.39] = [ 29.11,116.42] Ry 
 Optimized for a Real-space Cutoff    1.51 Angstroem

   l    n(q)    QCUT    max X(q) W(low)/X(q) W(high)/X(q)  e(spline) 
   2      8    10.195     3.831    0.11E-04    0.20E-04    0.48E-07
   2      8    10.195    20.184    0.23E-03    0.42E-03    0.20E-06
   0      9    10.195    16.770    0.13E-04    0.90E-05    0.63E-08
   0      9    10.195    80.708    0.19E-03    0.15E-03    0.44E-07
   1      9    10.195     6.696    0.12E-04    0.45E-04    0.30E-07
   1      9    10.195     8.973    0.12E-03    0.15E-03    0.13E-06
 Optimization of the real space projectors (new method)

 maximal supplied QI-value         = 25.13
 optimisation between [QCUT,QGAM] = [ 10.05, 20.36] = [ 28.30,116.06] Ry 
 Optimized for a Real-space Cutoff    1.38 Angstroem

   l    n(q)    QCUT    max X(q) W(low)/X(q) W(high)/X(q)  e(spline) 
   0      8    10.053     5.582    0.33E-04    0.15E-04    0.75E-07
   0      8    10.053    69.432    0.23E-03    0.38E-03    0.25E-06
   1      8    10.053     2.780    0.76E-04    0.11E-03    0.15E-06
   1      8    10.053     4.549    0.19E-03    0.19E-03    0.27E-06
 PAW_PBE O 08Apr2002                    :
 energy of atom  1       EATOM= -432.3788
 kinetic energy error for atom=    0.1156 (will be added to EATOM!!)
 PAW_PBE Si 05Jan2001                   :
 energy of atom  2       EATOM= -103.0669
 kinetic energy error for atom=    0.0012 (will be added to EATOM!!)
 PAW_PBE Al 04Jan2001                   :
 energy of atom  3       EATOM=  -53.5387
 kinetic energy error for atom=    0.0005 (will be added to EATOM!!)
 PAW_PBE Ag 06Sep2000                   :
 energy of atom  4       EATOM=-1037.4134
 kinetic energy error for atom=    0.0091 (will be added to EATOM!!)
 PAW_PBE C 08Apr2002                    :
 energy of atom  5       EATOM= -147.1560
 kinetic energy error for atom=    0.0288 (will be added to EATOM!!)
 
 
 POSCAR: O  C                                    
  positions in direct lattice
  velocities in cartesian coordinates
 exchange correlation table for  LEXCH =        8
   RHO(1)=    0.500       N(1)  =     2000
   RHO(2)=  100.500       N(2)  =     4000

 VTST: version 3.2, (02/03/18)

 CHAIN: initializing optimizer
 
 OPT: Using VASP Quick-Min optimizer
 CHAIN: Read ICHAIN            1
 
 POSCAR: O  C                                    
  positions in direct lattice
  velocities in cartesian coordinates
 CHAIN: Running the Dynamical Matrix
 


--------------------------------------------------------------------------------------------------------


 ion  position               nearest neighbor table
   1  0.897  0.097  0.119-  75 1.63  82 1.63
   2  0.108  0.888  0.883-  81 1.62  76 1.62
   3  0.892  0.794  0.128-  85 1.62  77 1.64
   4  0.093  0.195  0.866-  78 1.63  84 1.63
   5  0.194  0.103  0.116-  79 1.63  83 1.63
   6  0.798  0.903  0.882-  80 1.59 108 1.73
   7  0.552  0.427  0.456-  86 1.62  92 1.63
   8  0.762  0.234  0.219-  91 1.59 109 1.73
   9  0.565  0.140  0.470-  96 1.64  87 1.64
  10  0.764  0.538  0.204-  95 1.63  88 1.63
  11  0.862  0.424  0.463-  94 1.63  89 1.64
  12  0.463  0.236  0.183-  90 1.63  93 1.64
  13  0.228  0.775  0.777- 104 1.61  97 1.64
  14  0.423  0.569  0.524-  98 1.66 103 1.66 112 2.55
  15  0.231  0.452  0.774- 107 1.62  99 1.62
  16  0.427  0.851  0.530- 100 1.62 110 1.79 112 2.28
  17  0.531  0.756  0.804- 101 1.63 106 1.64
  18  0.121  0.559  0.534- 105 1.65 102 1.68 112 2.46
  19  0.975  0.315  0.161-  75 1.61  91 1.63
  20  0.018  0.669  0.840- 104 1.62  76 1.63
  21  0.677  0.673  0.174-  95 1.61  77 1.63
  22  0.311  0.316  0.819- 107 1.62  78 1.63
  23  0.316  0.015  0.179-  79 1.61  93 1.63
  24  0.661  0.980  0.827- 106 1.62  80 1.63
  25  0.326  0.987  0.838-  81 1.61  97 1.63
  26  0.675  0.004  0.162-  82 1.60 109 1.74 111 2.55
  27  0.672  0.673  0.811- 101 1.61 108 1.77 113 2.40
  28  0.330  0.323  0.157-  83 1.62  90 1.62
  29  0.017  0.337  0.832-  99 1.61  84 1.62
  30  0.986  0.671  0.175-  88 1.62  85 1.62
  31  0.645  0.641  0.503- 103 1.61  86 1.62
  32  0.340  0.993  0.475-  87 1.59 110 1.71
  33  0.993  0.337  0.498- 105 1.61  89 1.63
  34  0.334  0.349  0.482-  98 1.61  92 1.63
  35  0.984  0.643  0.504- 102 1.62  94 1.62
  36  0.649  0.007  0.514- 100 1.61  96 1.64
  37  0.116  0.243  0.130-  83 1.61  75 1.62
  38  0.889  0.756  0.856-  76 1.62 108 1.77 113 2.32
  39  0.759  0.878  0.110-  82 1.60  77 1.61
  40  0.228  0.108  0.870-  78 1.61  81 1.62
  41  0.111  0.883  0.126-  79 1.61  85 1.61
  42  0.874  0.123  0.859-  84 1.61  80 1.63
  43  0.771  0.553  0.470-  86 1.61  94 1.62
  44  0.534  0.087  0.175-  93 1.62 109 1.79 111 2.31
  45  0.415  0.210  0.467-  92 1.60  87 1.64
  46  0.902  0.454  0.196-  88 1.61  91 1.63
  47  0.782  0.206  0.453-  89 1.60  96 1.63
  48  0.544  0.456  0.196-  90 1.61  95 1.62
  49  0.445  0.892  0.806- 106 1.62  97 1.64
  50  0.208  0.428  0.540-  98 1.62 105 1.62
  51  0.118  0.555  0.801-  99 1.61 104 1.62
  52  0.577  0.787  0.520- 103 1.61 100 1.64
  53  0.450  0.535  0.801- 107 1.62 101 1.63
  54  0.201  0.775  0.542- 102 1.58 110 1.74 112 2.77
  55  0.996  0.258  0.995-  84 1.62  75 1.63
  56  0.988  0.726  0.003-  76 1.62  85 1.63
  57  0.731  0.712  1.000-  77 1.60 108 1.72
  58  0.254  0.265  0.991-  78 1.63  83 1.63
  59  0.271  0.004  0.005-  81 1.63  79 1.64
  60  0.663  0.589  0.334-  86 1.61  95 1.63
  61  0.630  0.048  0.341-  96 1.60 109 1.72
  62  0.440  0.108  0.325-  93 1.61  87 1.63
  63  0.914  0.583  0.336-  94 1.62  88 1.63
  64  0.937  0.346  0.330-  89 1.62  91 1.64
  65  0.402  0.322  0.322-  92 1.62  90 1.63
  66  0.355  0.948  0.667-  97 1.59 110 1.74
  67  0.351  0.410  0.655-  98 1.62 107 1.64
  68  0.057  0.405  0.666- 105 1.62  99 1.63
  69  0.574  0.897  0.667- 106 1.61 100 1.62
  70  0.566  0.658  0.660- 103 1.61 101 1.63
  71  0.052  0.642  0.670- 102 1.64 104 1.64
  72  0.730  0.013  0.994-  80 1.66  82 1.67 111 2.49
  73  0.611  0.286  0.635- 114 1.17
  74  0.773  0.458  0.672- 114 1.19 113 2.32
  75  0.994  0.227  0.102-  19 1.61  37 1.62  55 1.63   1 1.63  83 3.10  91 3.10  82 3.12  84 3.14

  76  0.001  0.762  0.897-  38 1.62  56 1.62   2 1.62  20 1.63 104 3.06  85 3.11 108 3.18 113 3.33

  77  0.764  0.763  0.100-  57 1.60  39 1.61  21 1.63   3 1.64  95 3.01 108 3.07  85 3.10
  78  0.221  0.221  0.888-  40 1.61  58 1.63  22 1.63   4 1.63 107 3.07  83 3.11  84 3.12
  79  0.223  0.002  0.106-  41 1.61  23 1.61   5 1.63  59 1.64  93 3.03  81 3.07
  80  0.768  0.001  0.889-   6 1.59  42 1.63  24 1.63  72 1.66 106 3.07  84 3.09  82 3.09 108 3.24

  81  0.233  0.997  0.899-  25 1.61  40 1.62   2 1.62  59 1.63  97 3.06  79 3.07
  82  0.767  0.998  0.099-  26 1.60  39 1.60   1 1.63  72 1.67  80 3.09  75 3.12 109 3.16 111 3.17

  83  0.224  0.233  0.098-  37 1.61  28 1.62   5 1.63  58 1.63  90 3.05  75 3.10  78 3.11
  84  0.995  0.226  0.889-  42 1.61  55 1.62  29 1.62   4 1.63  99 3.07  80 3.09  78 3.12  75 3.14

  85  0.993  0.769  0.107-  41 1.61   3 1.62  30 1.62  56 1.63  88 3.03  77 3.10  76 3.11
  86  0.658  0.552  0.438-  60 1.61  43 1.61   7 1.62  31 1.62 103 3.07  94 3.10  95 3.14  92 3.14

  87  0.438  0.109  0.435-  32 1.59  62 1.63  45 1.64   9 1.64  96 3.03  92 3.04 110 3.07
  88  0.891  0.560  0.227-  46 1.61  30 1.62  63 1.63  10 1.63  85 3.03  91 3.10  95 3.14
  89  0.891  0.326  0.434-  47 1.60  64 1.62  33 1.63  11 1.64 105 3.03  91 3.07  94 3.11
  90  0.436  0.334  0.216-  48 1.61  28 1.62  12 1.63  65 1.63  83 3.05  93 3.06  95 3.13
  91  0.889  0.333  0.226-   8 1.59  19 1.63  46 1.63  64 1.64  89 3.07  88 3.10  75 3.10 109 3.24

  92  0.426  0.325  0.430-  45 1.60  65 1.62   7 1.63  34 1.63  87 3.04  98 3.05  86 3.14
  93  0.439  0.111  0.216-  62 1.61  44 1.62  23 1.63  12 1.64  79 3.03  90 3.06 109 3.07
  94  0.883  0.550  0.441-  63 1.62  35 1.62  43 1.62  11 1.63 102 3.05  86 3.10  89 3.11
  95  0.663  0.564  0.226-  21 1.61  48 1.62  10 1.63  60 1.63  77 3.01  90 3.13  86 3.14  88 3.14

  96  0.655  0.099  0.441-  61 1.60  47 1.63  36 1.64   9 1.64  87 3.03 100 3.04 109 3.11
  97  0.338  0.902  0.768-  66 1.59  25 1.63  13 1.64  49 1.64  81 3.06 106 3.09 110 3.13
  98  0.329  0.436  0.552-  34 1.61  50 1.62  67 1.62  14 1.66  92 3.05 103 3.10 107 3.11
  99  0.106  0.437  0.769-  29 1.61  51 1.61  15 1.62  68 1.63  84 3.07 105 3.08 104 3.09
 100  0.556  0.888  0.558-  36 1.61  69 1.62  16 1.62  52 1.64 103 3.04  96 3.04 110 3.18 112 3.34

 101  0.555  0.656  0.770-  27 1.61  70 1.63  53 1.63  17 1.63 107 3.07 106 3.09 108 3.12
 102  0.091  0.659  0.563-  54 1.58  35 1.62  71 1.64  18 1.68  94 3.05 104 3.08 105 3.14 112 3.26

 103  0.554  0.665  0.553-  70 1.61  31 1.61  52 1.61  14 1.66 100 3.04  86 3.07  98 3.10
 104  0.107  0.663  0.771-  13 1.61  51 1.62  20 1.62  71 1.64  76 3.06 102 3.08  99 3.09
 105  0.092  0.430  0.560-  33 1.61  68 1.62  50 1.62  18 1.65  89 3.03  99 3.08 102 3.14
 106  0.553  0.881  0.775-  69 1.61  49 1.62  24 1.62  17 1.64  80 3.07 101 3.09  97 3.09
 107  0.335  0.428  0.762-  22 1.62  15 1.62  53 1.62  67 1.64 101 3.07  78 3.07  98 3.11
 108  0.770  0.765  0.892-  57 1.72   6 1.73  38 1.77  27 1.77  77 3.07 113 3.09 101 3.12  76 3.18
                            80 3.24
 109  0.654  0.095  0.230-  61 1.72   8 1.73  26 1.74  44 1.79  93 3.07 111 3.10  96 3.11  82 3.16
                            91 3.24
 110  0.330  0.898  0.556-  32 1.71  66 1.74  54 1.74  16 1.79  87 3.07  97 3.13 100 3.18 112 3.23

 111  0.560  0.024  0.036-  44 2.31  72 2.49  26 2.55 109 3.10  82 3.17
 112  0.317  0.671  0.480-  16 2.28  18 2.46  14 2.55  54 2.77 110 3.23 102 3.26 100 3.34
 113  0.799  0.620  0.745-  38 2.32  74 2.32  27 2.40 108 3.09  76 3.33
 114  0.692  0.372  0.653-  73 1.17  74 1.19
 
  LATTYP: Found a hexagonal cell.
 ALAT       =    13.6750001907
 C/A-ratio  =     1.0798537472
  
  Lattice vectors:
  
 A1 = (  13.6750001907,   0.0000000000,   0.0000000000)
 A2 = (  -6.8375000954,  11.8428975619,   0.0000000000)
 A3 = (   0.0000000000,   0.0000000000,  14.7670001984)


Analysis of symmetry for initial positions (statically):
=====================================================================
 Subroutine PRICEL returns:
 Original cell was already a primitive cell.
 

 Routine SETGRP: Setting up the symmetry group for a 
 hexagonal supercell.


 Subroutine GETGRP returns: Found  1 space group operations
 (whereof  1 operations were pure point group operations)
 out of a pool of 24 trial point group operations.


The static configuration has the point symmetry C_1 .


Analysis of symmetry for dynamics (positions and initial velocities):
=====================================================================
 Subroutine PRICEL returns:
 Original cell was already a primitive cell.
 

 Routine SETGRP: Setting up the symmetry group for a 
 hexagonal supercell.


 Subroutine GETGRP returns: Found  1 space group operations
 (whereof  1 operations were pure point group operations)
 out of a pool of 24 trial point group operations.


The dynamic configuration has the point symmetry C_1 .


Analysis of structural, dynamic, and magnetic symmetry:
=====================================================================
 Subroutine PRICEL returns:
 Original cell was already a primitive cell.
 

 Routine SETGRP: Setting up the symmetry group for a 
 hexagonal supercell.


 Subroutine GETGRP returns: Found  1 space group operations
 (whereof  1 operations were pure point group operations)
 out of a pool of 24 trial point group operations.


The magnetic configuration has the point symmetry C_1 .


 Subroutine INISYM returns: Found  1 space group operations
 (whereof  1 operations are pure point group operations),
 and found     1 'primitive' translations

 
 
 KPOINTS: Gamma points only                       
  k-points in reciprocal lattice
Space group operators:
 irot       det(A)        alpha          n_x          n_y          n_z        tau_x        tau_y        tau_z
    1     1.000000     0.000000     1.000000     0.000000     0.000000     0.000000     0.000000     0.000000


--------------------------------------------------------------------------------------------------------




 Dimension of arrays:
   k-points           NKPTS =      1   k-points in BZ     NKDIM =      1   number of bands    NBANDS=    432
   number of dos      NEDOS =    301   number of ions     NIONS =    114
   non local maximal  LDIM  =      6   non local SUM 2l+1 LMDIM =     18
   total plane-waves  NPLWV = 777600
   max r-space proj   IRMAX =   4725   max aug-charges    IRDMAX= 128081
   dimension x,y,z NGX =    90 NGY =   90 NGZ =   96
   dimension x,y,z NGXF=   180 NGYF=  180 NGZF=  192
   support grid    NGXF=   360 NGYF=  360 NGZF=  384
   ions per type =              74  33   3   3   1
   NGX,Y,Z   is equivalent  to a cutoff of  10.94, 10.94, 10.81 a.u.
   NGXF,Y,Z  is equivalent  to a cutoff of  21.88, 21.88, 21.62 a.u.

 SYSTEM =  zeolite                                 
 POSCAR =  O  C                                    

 Startparameter for this run:
   NWRITE =      2    write-flag & timer
   PREC   = acc       normal or accurate (medium, high low for compatibility)
   ISTART =      0    job   : 0-new  1-cont  2-samecut
   ICHARG =      2    charge: 1-file 2-atom 10-const
   ISPIN  =      2    spin polarized calculation?
   LNONCOLLINEAR =      F non collinear calculations
   LSORBIT =      F    spin-orbit coupling
   INIWAV =      1    electr: 0-lowe 1-rand  2-diag
   LASPH  =      F    aspherical Exc in radial PAW
   METAGGA=      F    non-selfconsistent MetaGGA calc.

 Electronic Relaxation 1
   ENCUT  =  400.0 eV  29.40 Ry    5.42 a.u.  22.30 22.30 24.08*2*pi/ulx,y,z
   ENINI  =  400.0     initial cutoff
   ENAUG  =  644.9 eV  augmentation charge cutoff
   NELM   =    100;   NELMIN=  2; NELMDL=  0     # of ELM steps 
   EDIFF  = 0.1E-07   stopping-criterion for ELM
   LREAL  =      T    real-space projection
   NLSPLINE    = F    spline interpolate recip. space projectors
   LCOMPAT=      F    compatible to vasp.4.4
   GGA_COMPAT  = T    GGA compatible to vasp.4.4-vasp.4.6
   LMAXPAW     = -100 max onsite density
   LMAXMIX     =    2 max onsite mixed and CHGCAR
   VOSKOWN=      0    Vosko Wilk Nusair interpolation
   ROPT   =   -0.00025  -0.00025  -0.00025  -0.00025
   ROPT   =   -0.00025
 Ionic relaxation
   EDIFFG = -.1E-07   stopping-criterion for IOM
   NSW    =     10    number of steps for IOM
   NBLOCK =      1;   KBLOCK =     10    inner block; outer block 
   IBRION =      3    ionic relax: 0-MD 1-quasi-New 2-CG
   NFREE  =      0    steps in history (QN), initial steepest desc. (CG)
   ISIF   =      2    stress and relaxation
   IWAVPR =     11    prediction:  0-non 1-charg 2-wave 3-comb
   ISYM   =      2    0-nonsym 1-usesym 2-fastsym
   LCORR  =      T    Harris-Foulkes like correction to forces

   POTIM  = 0.0000    time-step for ionic-motion
   TEIN   =    0.0    initial temperature
   TEBEG  =    0.0;   TEEND  =   0.0 temperature during run
   SMASS  =  -3.00    Nose mass-parameter (am)
   estimated Nose-frequenzy (Omega)   =  0.10E-29 period in steps =  0.00 mass=  -0.427E-26a.u.
   SCALEE = 1.0000    scale energy and forces
   NPACO  =    256;   APACO  = 16.0  distance and # of slots for P.C.
   PSTRESS=    0.0 pullay stress

  Mass of Ions in am
   POMASS =  16.00 28.09 26.98107.87 12.01
  Ionic Valenz
   ZVAL   =   6.00  4.00  3.00 11.00  4.00
  Atomic Wigner-Seitz radii
   RWIGS  =  -1.00 -1.00 -1.00 -1.00 -1.00
  virtual crystal weights 
   VCA    =   1.00  1.00  1.00  1.00  1.00
   NELECT =     622.0000    total number of electrons
   NUPDOWN=      -1.0000    fix difference up-down

 DOS related values:
   EMIN   =  10.00;   EMAX   =-10.00  energy-range for DOS
   EFERMI =   0.00
   ISMEAR =     0;   SIGMA  =   0.05  broadening in eV -4-tet -1-fermi 0-gaus

 Electronic relaxation 2 (details)
   IALGO  =     38    algorithm
   LDIAG  =      T    sub-space diagonalisation (order eigenvalues)
   LSUBROT=      F    optimize rotation matrix (better conditioning)
   TURBO    =      0    0=normal 1=particle mesh
   IRESTART =      0    0=no restart 2=restart with 2 vectors
   NREBOOT  =      0    no. of reboots
   NMIN     =      0    reboot dimension
   EREF     =   0.00    reference energy to select bands
   IMIX   =      4    mixing-type and parameters
     AMIX     =   0.40;   BMIX     =  1.00
     AMIX_MAG =   1.60;   BMIX_MAG =  1.00
     AMIN     =   0.10
     WC   =   100.;   INIMIX=   1;  MIXPRE=   1;  MAXMIX= -45

 Intra band minimization:
   WEIMIN = 0.0010     energy-eigenvalue tresh-hold
   EBREAK =  0.58E-12  absolut break condition
   DEPER  =   0.30     relativ break condition  

   TIME   =   0.40     timestep for ELM

  volume/ion in A,a.u.               =      20.98       141.57
  Fermi-wavevector in a.u.,A,eV,Ry     =   1.044991  1.974746 14.857638  1.092006
  Thomas-Fermi vector in A             =   2.179767
 
 Write flags
   LWAVE        =      F    write WAVECAR
   LDOWNSAMPLE  =      F    k-point downsampling of WAVECAR
   LCHARG       =      F    write CHGCAR
   LVTOT        =      F    write LOCPOT, total local potential
   LVHAR        =      F    write LOCPOT, Hartree potential only
   LELF         =      F    write electronic localiz. function (ELF)
   LORBIT       =     11    0 simple, 1 ext, 2 COOP (PROOUT), +10 PAW based schemes


 Dipole corrections
   LMONO  =      F    monopole corrections only (constant potential shift)
   LDIPOL =      F    correct potential (dipole corrections)
   IDIPOL =      0    1-x, 2-y, 3-z, 4-all directions 
   EPSILON=  1.0000000 bulk dielectric constant

 Exchange correlation treatment:
   GGA     =    --    GGA type
   LEXCH   =     8    internal setting for exchange type
   VOSKOWN=      0    Vosko Wilk Nusair interpolation
   LHFCALC =     F    Hartree Fock is set to
   LHFONE  =     F    Hartree Fock one center treatment
   AEXX    =    0.0000 exact exchange contribution

 Linear response parameters
   LEPSILON=     F    determine dielectric tensor
   LRPA    =     F    only Hartree local field effects (RPA)
   LNABLA  =     F    use nabla operator in PAW spheres
   LVEL    =     F    velocity operator in full k-point grid
   LINTERFAST=   F  fast interpolation
   KINTER  =     0    interpolate to denser k-point grid
   CSHIFT  =0.1000    complex shift for real part using Kramers Kronig
   OMEGAMAX=  -1.0    maximum frequency
   DEG_THRESHOLD= 0.2000000E-02 threshold for treating states as degnerate
   RTIME   =   -0.100 relaxation time in fs
  (WPLASMAI=    0.000 imaginary part of plasma frequency in eV, 0.658/RTIME)
   DFIELD  = 0.0000000 0.0000000 0.0000000 field for delta impulse in time
 
 Orbital magnetization related:
   ORBITALMAG=     F  switch on orbital magnetization
   LCHIMAG   =     F  perturbation theory with respect to B field
   DQ        =  0.001000  dq finite difference perturbation B field
   LLRAUG    =     F  two centre corrections for induced B field



--------------------------------------------------------------------------------------------------------


 quickmin algorithm: (dynamic with friction)
 charge density and potential will be updated during run
 spin polarized calculation
 Variant of blocked Davidson
 Davidson routine will perform the subspace rotation
 perform sub-space diagonalisation
    after iterative eigenvector-optimisation
 modified Broyden-mixing scheme, WC =      100.0
 initial mixing is a Kerker type mixing with AMIX =  0.4000 and BMIX =      1.0000
 Hartree-type preconditioning will be used
 using additional bands          121
 real space projection scheme for non local part
 use partial core corrections
 calculate Harris-corrections to forces 
   (improved forces if not selfconsistent)
 use gradient corrections 
 use of overlap-Matrix (Vanderbilt PP)
 Gauss-broadening in eV      SIGMA  =   0.05


--------------------------------------------------------------------------------------------------------


  energy-cutoff  :      400.00
  volume of cell :     2391.54
      direct lattice vectors                 reciprocal lattice vectors
    13.675000191  0.000000000  0.000000000     0.073126142  0.042219398  0.000000000
    -6.837500095 11.842897562  0.000000000     0.000000000  0.084438795  0.000000000
     0.000000000  0.000000000 14.767000198     0.000000000  0.000000000  0.067718561

  length of vectors
    13.675000191 13.675000191 14.767000198     0.084438795  0.084438795  0.067718561


 
 k-points in units of 2pi/SCALE and weight: Gamma points only                       
   0.00000000  0.00000000  0.00000000       1.000
 
 k-points in reciprocal lattice and weights: Gamma points only                       
   0.00000000  0.00000000  0.00000000       1.000
 
 position of ions in fractional coordinates (direct lattice) 
   0.89657642  0.09681476  0.11874539
   0.10784447  0.88832779  0.88329997
   0.89225828  0.79436768  0.12759870
   0.09286870  0.19496249  0.86621059
   0.19399473  0.10349331  0.11607388
   0.79812751  0.90295582  0.88157061
   0.55217107  0.42655694  0.45583629
   0.76171250  0.23382829  0.21878200
   0.56455562  0.13985534  0.47030652
   0.76443161  0.53791718  0.20354799
   0.86160210  0.42430237  0.46320022
   0.46310009  0.23609227  0.18341779
   0.22844235  0.77508419  0.77740509
   0.42300452  0.56859967  0.52363829
   0.23120203  0.45187275  0.77379098
   0.42746930  0.85123555  0.53048907
   0.53106557  0.75606283  0.80425297
   0.12101784  0.55866462  0.53350890
   0.97524343  0.31518800  0.16120662
   0.01769690  0.66925518  0.84017931
   0.67685185  0.67328801  0.17356270
   0.31050981  0.31633129  0.81854796
   0.31614208  0.01490779  0.17918964
   0.66115038  0.98030665  0.82691755
   0.32562077  0.98704628  0.83830135
   0.67538381  0.00367502  0.16208467
   0.67162150  0.67276016  0.81127863
   0.33044189  0.32326616  0.15738976
   0.01654637  0.33664168  0.83248219
   0.98595601  0.67129640  0.17455464
   0.64542456  0.64094377  0.50339204
   0.34047704  0.99320385  0.47499556
   0.99266212  0.33668975  0.49819435
   0.33449074  0.34871185  0.48201929
   0.98418122  0.64259520  0.50397451
   0.64870701  0.00671176  0.51447407
   0.11573597  0.24271700  0.12955234
   0.88897631  0.75639222  0.85578758
   0.75902946  0.87772539  0.11019805
   0.22776272  0.10820170  0.87025552
   0.11134022  0.88259154  0.12601881
   0.87366943  0.12251050  0.85930817
   0.77095814  0.55324373  0.47033169
   0.53393810  0.08656655  0.17458118
   0.41454053  0.20972137  0.46740165
   0.90153377  0.45357128  0.19556406
   0.78194180  0.20598803  0.45267927
   0.54440033  0.45601126  0.19607471
   0.44531820  0.89195413  0.80613838
   0.20774571  0.42784160  0.53982964
   0.11769212  0.55475666  0.80093742
   0.57706978  0.78691609  0.51976735
   0.44972798  0.53460771  0.80054233
   0.20080286  0.77507529  0.54248973
   0.99601110  0.25759636  0.99511180
   0.98818317  0.72643966  0.00327744
   0.73097504  0.71170211  0.99952725
   0.25383987  0.26509502  0.99141151
   0.27140548  0.00448444  0.00458211
   0.66281301  0.58911953  0.33402019
   0.63023405  0.04832643  0.34092056
   0.43952013  0.10826443  0.32494890
   0.91413888  0.58293568  0.33557364
   0.93671715  0.34602383  0.33030137
   0.40238656  0.32176422  0.32243053
   0.35452320  0.94772604  0.66669574
   0.35058471  0.40963541  0.65463670
   0.05735425  0.40542212  0.66557672
   0.57440968  0.89665268  0.66684072
   0.56589245  0.65822617  0.66043089
   0.05244668  0.64230340  0.66971167
   0.72994830  0.01261801  0.99399954
   0.61121037  0.28629883  0.63524302
   0.77343382  0.45837078  0.67205870
   0.99429728  0.22734353  0.10177255
   0.00107211  0.76211056  0.89732579
   0.76393345  0.76286109  0.09950298
   0.22056133  0.22089991  0.88761212
   0.22254220  0.00199059  0.10628702
   0.76800017  0.00094791  0.88934562
   0.23252771  0.99654756  0.89904703
   0.76702906  0.99780721  0.09880338
   0.22357951  0.23289632  0.09813181
   0.99496525  0.22624701  0.88936253
   0.99323400  0.76850407  0.10731944
   0.65755446  0.55211935  0.43828590
   0.43835757  0.10903194  0.43510447
   0.89055985  0.56038750  0.22723935
   0.89102651  0.32643350  0.43359647
   0.43573352  0.33373833  0.21559022
   0.88936119  0.33332456  0.22608451
   0.42597913  0.32512428  0.43019430
   0.43891141  0.11149251  0.21626575
   0.88346913  0.55014524  0.44091844
   0.66300955  0.56389021  0.22618941
   0.65458187  0.09918085  0.44115410
   0.33827635  0.90193336  0.76791720
   0.32924382  0.43639673  0.55171912
   0.10607475  0.43673779  0.76857959
   0.55640670  0.88799855  0.55790485
   0.55513607  0.65644113  0.77027917
   0.09072224  0.65874311  0.56335778
   0.55417414  0.66476238  0.55258734
   0.10666594  0.66277620  0.77144727
   0.09234288  0.42986637  0.56005190
   0.55265089  0.88076201  0.77464528
   0.33504238  0.42776479  0.76225790
   0.77046970  0.76549587  0.89166999
   0.65414955  0.09520844  0.23040436
   0.32961234  0.89848986  0.55594139
   0.56001750  0.02431946  0.03596119
   0.31693839  0.67094979  0.47977036
   0.79906793  0.61988710  0.74522562
   0.69155446  0.37180269  0.65310655
 
 position of ions in cartesian coordinates  (Angst):
  11.59871176  1.14656731  1.75351318
  -4.59916817 10.52037497 13.04369076
   6.77014304  9.40761505  1.88425005
  -0.06307649  2.30892075 12.79133190
   1.94524244  1.22566071  1.71406302
   4.74043330 10.69361333 13.01815337
   4.63435638  5.05167012  6.73133463
   8.81761769  2.76920445  3.23075381
   6.76403735  1.65629243  6.94501652
   6.77559364  6.37049802  3.00579322
   8.88124136  5.02496945  6.84007773
   4.71861291  2.79601653  2.70853054
  -2.17568907  9.17924262 11.47994116
   1.89678656  6.73386762  7.73256679
   0.07200785  5.35148271 11.42657160
   0.02531961 10.08109547  7.83373217
   2.09274218  8.95397461 11.87640373
  -2.16495045  6.61620787  7.87832598
  11.18135602  3.73273925  2.38053824
  -4.33402733  7.92592057 12.40692810
   4.65234237  7.97368090  2.56300044
   2.08330650  3.74627902 12.08749789
   4.22131099  0.17655142  2.64609344
   2.33838477 11.60967127 12.21109160
  -2.29606494 11.68948803 12.37919626
   9.21074576  0.04352292  2.39350434
   4.58442650  7.96742966 11.98015171
   2.30846044  3.82840806  2.32417460
  -2.07551584  3.98681291 12.29326464
   8.89295934  7.95009453  2.57764846
   4.44372790  7.59063140  7.43359036
  -2.13500785 11.76241142  7.01425947
  11.27253847  3.98738228  7.35683606
   2.18984356  4.12975873  7.11797894
   9.06493368  7.61018916  7.44219163
   8.82517676  0.07948674  7.59723872
  -0.07688812  2.87447259  1.91309936
   6.98491929  8.95787562 12.63741535
   4.37828058 10.39481184  1.62729468
   2.37482614  1.28142160 12.85106340
  -4.51214222 10.45244123  1.86091979
  11.10976401  1.45087931 12.68940397
   6.76004863  6.55200882  6.94538812
   6.70970483  1.02519884  2.57804027
   4.23487194  2.48370869  6.90212033
   9.22718078  5.37159817  2.88789451
   9.28461110  2.43949515  6.68471493
   4.32669752  5.40049466  2.89543532
  -0.00900993 10.56332135 11.90424566
  -0.08444431  5.06688421  7.97166435
  -2.18370901  6.56992631 11.82744303
   2.51089046  9.31936668  7.67540450
   2.49464995  6.33130431 11.82160881
  -2.55359824  9.17913727  8.01094597
  11.85913688  3.05068731 14.69481610
   8.54637382  8.60315043  0.04839801
   5.12982052  8.42861521 14.76001913
   1.65867305  3.13949313 14.64017395
   3.68080763  0.05310874  0.06766402
   5.03586315  6.97688223  4.93247626
   8.28801875  0.57232493  5.03437396
   5.27017981  1.28216459  4.79852052
   8.51502658  6.90364749  4.95541604
  10.44366917  4.09792479  4.87756033
   3.30257339  3.81062073  4.76133177
  -1.63197216 11.22382246  9.84509618
   1.99336379  4.85127015  9.66702023
  -1.98775442  4.80137265  9.82857154
   1.72418963 10.61896585  9.84723702
   3.23795780  7.79530514  9.75258306
  -3.67454121  7.60673331  9.88963240
   9.89576743  0.14943383 14.67839144
   6.40073363  3.39060775  9.38063382
   7.44259739  5.42843818  9.92429094
  12.04255409  2.69240618  1.50287526
  -5.19626993  9.02559726 13.25081015
   5.23072736  9.03448570  1.46936060
   1.50577309  2.61609497 13.10736836
   3.02965395  0.02357433  1.56954047
  10.49592118  0.01122598 13.13296694
  -3.63407754 11.80201067 13.27622760
   3.66661562 11.81692861  1.45902949
   1.46502125  2.75816725  1.44911252
  12.05918598  2.67942015 13.13321669
   8.32782852  9.10131496  1.58478618
   5.21694125  6.53869289  6.47216798
   5.24903399  1.29125405  6.42518778
   8.34675653  6.63661177  3.35564357
   9.95279859  3.86591847  6.40291921
   3.67672013  3.95242883  3.18362084
   9.88290764  3.94752868  3.33858994
   3.60222737  3.85041353  6.35267928
   5.23978352  1.32039435  3.19359630
   8.31982236  6.51531371  6.51104274
   5.21105629  6.67809402  3.34013906
   8.27325816  1.17458865  6.51452275
  -1.54104033 10.68150440 11.33983349
   1.51854659  5.16820179  8.14723633
  -1.53562245  5.17224091 11.34961498
   1.53717159 10.51647587  8.23858097
   3.10306959  7.77416507 11.37471268
  -3.26352937  7.80142718  8.31910448
   3.03301861  7.87271273  8.16005730
  -3.07307558  7.84919059 11.39196205
  -1.67642247  5.09086336  8.27028645
   1.53529073 10.43077426 11.43918704
   1.65686281  5.06597455 11.25626255
   5.30209515  9.06568919 13.16729088
   8.29450756  1.12754376  3.40238127
  -1.63597567 10.64072337  8.20958664
   7.49195507  0.28801291  0.53103890
  -0.25348671  7.94598968  7.08476903
   6.68877599  7.34125941 11.00474691
   6.91480639  4.40322115  9.64442448
 


--------------------------------------------------------------------------------------------------------


 k-point  1 :   0.0000 0.0000 0.0000  plane waves:   43405

 maximum and minimum number of plane-waves per node :     10852    10850

 maximum number of plane-waves:     43405
 maximum index in each direction: 
   IXMAX=   22   IYMAX=   22   IZMAX=   24
   IXMIN=  -22   IYMIN=  -22   IZMIN=  -24


 real space projection operators:
  total allocation   :      30779.91 KBytes
  max/ min on nodes  :       7858.67       7530.92


 parallel 3D FFT for wavefunctions:
    minimum data exchange during FFTs selected (reduces bandwidth)
 parallel 3D FFT for charge:
    minimum data exchange during FFTs selected (reduces bandwidth)


 total amount of memory used by VASP MPI-rank0   211522. kBytes
=======================================================================

   base      :      30000. kBytes
   nonlr-proj:      18805. kBytes
   fftplans  :      63994. kBytes
   grid      :      59474. kBytes
   one-center:        902. kBytes
   wavefun   :      38347. kBytes
 
     INWAV:  cpu time    0.0000: real time    0.0002
 Broyden mixing: mesh for mixing (old mesh)
   NGX = 45   NGY = 45   NGZ = 49
  (NGX  =180   NGY  =180   NGZ  =192)
  gives a total of  99225 points

 initial charge density was supplied:
 charge density of overlapping atoms calculated
 number of electron     622.0000000 magnetization     114.0000000
 keeping initial charge density in first step


--------------------------------------------------------------------------------------------------------


 Maximum index for non-local projection operator         1302
 Maximum index for augmentation-charges         7886 (set IRDMAX)


--------------------------------------------------------------------------------------------------------


 First call to EWALD:  gamma=   0.133
 Maximum number of real-space cells 3x 3x 3
 Maximum number of reciprocal cells 3x 3x 3

    FEWALD:  cpu time    0.0067: real time    0.0067


--------------------------------------- Iteration      1(   1)  ---------------------------------------


    POTLOK:  cpu time    0.5872: real time    0.6280
    SETDIJ:  cpu time    0.4606: real time    0.4640
     EDDAV:  cpu time   15.7314: real time   15.7913
       DOS:  cpu time    0.0007: real time    0.0007
    --------------------------------------------
      LOOP:  cpu time   16.7798: real time   16.8840

 eigenvalue-minimisations  :  1800
 total energy-change (2. order) : 0.4395652E+04  (-0.2602795E+05)
 number of electron     622.0000000 magnetization     114.0000000
 augmentation part      622.0000000 magnetization     114.0000000

 Free energy of the ion-electron system (eV)
  ---------------------------------------------------
  alpha Z        PSCENC =       648.26783371
  Ewald energy   TEWEN  =     -6501.16298808
  -Hartree energ DENC   =    -28859.28420660
  -exchange      EXHF   =         0.00000000
  -V(xc)+E(xc)   XCENC  =      1688.64803040
  PAW double counting   =     22036.42461272   -21358.26097919
  entropy T*S    EENTRO =        -0.03191858
  eigenvalues    EBANDS =     -2067.54901917
  atomic energy  EATOM  =     38808.60080413
  Solvation  Ediel_sol  =         0.00000000
  ---------------------------------------------------
  free energy    TOTEN  =      4395.65216935 eV

  energy without entropy =     4395.68408793  energy(sigma->0) =     4395.66812864


--------------------------------------------------------------------------------------------------------




--------------------------------------- Iteration      1(   2)  ---------------------------------------


     EDDAV:  cpu time   17.7269: real time   17.7725
       DOS:  cpu time    0.0003: real time    0.0003
    --------------------------------------------
      LOOP:  cpu time   17.7272: real time   17.7728

 eigenvalue-minimisations  :  2096
 total energy-change (2. order) :-0.4823950E+04  (-0.4646720E+04)
 number of electron     622.0000000 magnetization     114.0000000
 augmentation part      622.0000000 magnetization     114.0000000

 Free energy of the ion-electron system (eV)
  ---------------------------------------------------
  alpha Z        PSCENC =       648.26783371
  Ewald energy   TEWEN  =     -6501.16298808
  -Hartree energ DENC   =    -28859.28420660
  -exchange      EXHF   =         0.00000000
  -V(xc)+E(xc)   XCENC  =      1688.64803040
  PAW double counting   =     22036.42461272   -21358.26097919
  entropy T*S    EENTRO =        -0.00000000
  eigenvalues    EBANDS =     -6891.53044926
  atomic energy  EATOM  =     38808.60080413
  Solvation  Ediel_sol  =         0.00000000
  ---------------------------------------------------
  free energy    TOTEN  =      -428.29734216 eV

  energy without entropy =     -428.29734216  energy(sigma->0) =     -428.29734216


--------------------------------------------------------------------------------------------------------




--------------------------------------- Iteration      1(   3)  ---------------------------------------


     EDDAV:  cpu time   17.7599: real time   17.8073
       DOS:  cpu time    0.0003: real time    0.0003
    --------------------------------------------
      LOOP:  cpu time   17.7602: real time   17.8076

 eigenvalue-minimisations  :  2104
 total energy-change (2. order) :-0.5202077E+03  (-0.5165702E+03)
 number of electron     622.0000000 magnetization     114.0000000
 augmentation part      622.0000000 magnetization     114.0000000

 Free energy of the ion-electron system (eV)
  ---------------------------------------------------
  alpha Z        PSCENC =       648.26783371
  Ewald energy   TEWEN  =     -6501.16298808
  -Hartree energ DENC   =    -28859.28420660
  -exchange      EXHF   =         0.00000000
  -V(xc)+E(xc)   XCENC  =      1688.64803040
  PAW double counting   =     22036.42461272   -21358.26097919
  entropy T*S    EENTRO =        -0.00000000
  eigenvalues    EBANDS =     -7411.73819495
  atomic energy  EATOM  =     38808.60080413
  Solvation  Ediel_sol  =         0.00000000
  ---------------------------------------------------
  free energy    TOTEN  =      -948.50508785 eV

  energy without entropy =     -948.50508785  energy(sigma->0) =     -948.50508785


--------------------------------------------------------------------------------------------------------




--------------------------------------- Iteration      1(   4)  ---------------------------------------


     EDDAV:  cpu time   18.0447: real time   18.0947
       DOS:  cpu time    0.0003: real time    0.0003
    --------------------------------------------
      LOOP:  cpu time   18.0450: real time   18.0950

 eigenvalue-minimisations  :  2152
 total energy-change (2. order) :-0.1046820E+02  (-0.1042530E+02)
 number of electron     622.0000000 magnetization     114.0000000
 augmentation part      622.0000000 magnetization     114.0000000

 Free energy of the ion-electron system (eV)
  ---------------------------------------------------
  alpha Z        PSCENC =       648.26783371
  Ewald energy   TEWEN  =     -6501.16298808
  -Hartree energ DENC   =    -28859.28420660
  -exchange      EXHF   =         0.00000000
  -V(xc)+E(xc)   XCENC  =      1688.64803040
  PAW double counting   =     22036.42461272   -21358.26097919
  entropy T*S    EENTRO =        -0.00000000
  eigenvalues    EBANDS =     -7422.20639348
  atomic energy  EATOM  =     38808.60080413
  Solvation  Ediel_sol  =         0.00000000
  ---------------------------------------------------
  free energy    TOTEN  =      -958.97328638 eV

  energy without entropy =     -958.97328638  energy(sigma->0) =     -958.97328638


--------------------------------------------------------------------------------------------------------




--------------------------------------- Iteration      1(   5)  ---------------------------------------


     EDDAV:  cpu time   18.1457: real time   18.1903
       DOS:  cpu time    0.0003: real time    0.0003
    CHARGE:  cpu time    1.2777: real time    1.2809
    MIXING:  cpu time    0.0120: real time    0.0120
    --------------------------------------------
      LOOP:  cpu time   19.4357: real time   19.4835

 eigenvalue-minimisations  :  2160
 total energy-change (2. order) :-0.2737276E+00  (-0.2733667E+00)
 number of electron     622.0000005 magnetization      86.0401199
 augmentation part       71.1944451 magnetization      87.2317241

 Broyden mixing:
  rms(total) = 0.87126E+01    rms(broyden)= 0.87083E+01
  rms(prec ) = 0.95138E+01
  weight for this iteration     100.00

 Free energy of the ion-electron system (eV)
  ---------------------------------------------------
  alpha Z        PSCENC =       648.26783371
  Ewald energy   TEWEN  =     -6501.16298808
  -Hartree energ DENC   =    -28859.28420660
  -exchange      EXHF   =         0.00000000
  -V(xc)+E(xc)   XCENC  =      1688.64803040
  PAW double counting   =     22036.42461272   -21358.26097919
  entropy T*S    EENTRO =        -0.00000000
  eigenvalues    EBANDS =     -7422.48012104
  atomic energy  EATOM  =     38808.60080413
  Solvation  Ediel_sol  =         0.00000000
  ---------------------------------------------------
  free energy    TOTEN  =      -959.24701394 eV

  energy without entropy =     -959.24701394  energy(sigma->0) =     -959.24701394


--------------------------------------------------------------------------------------------------------




--------------------------------------- Iteration      1(   6)  ---------------------------------------


    POTLOK:  cpu time    0.5879: real time    0.5914
    SETDIJ:  cpu time    0.4571: real time    0.4582
     EDDAV:  cpu time   17.0484: real time   17.0940
       DOS:  cpu time    0.0003: real time    0.0003
    CHARGE:  cpu time    1.2950: real time    1.2982
    MIXING:  cpu time    0.0120: real time    0.0120
    --------------------------------------------
      LOOP:  cpu time   19.4007: real time   19.4542

 eigenvalue-minimisations  :  2008
 total energy-change (2. order) : 0.3541115E+03  (-0.7158497E+02)
 number of electron     622.0000004 magnetization      63.2631693
 augmentation part       63.1198042 magnetization      59.2530087

 Broyden mixing:
  rms(total) = 0.28110E+01    rms(broyden)= 0.28074E+01
  rms(prec ) = 0.30416E+01
  weight for this iteration     100.00

 eigenvalues of (default mixing * dielectric matrix)
  average eigenvalue GAMMA=   1.0000
  1.0000

 Free energy of the ion-electron system (eV)
  ---------------------------------------------------
  alpha Z        PSCENC =       648.26783371
  Ewald energy   TEWEN  =     -6501.16298808
  -Hartree energ DENC   =    -30257.96272698
  -exchange      EXHF   =         0.00000000
  -V(xc)+E(xc)   XCENC  =      1944.89624115
  PAW double counting   =     25845.03083189   -25190.03833506
  entropy T*S    EENTRO =        -0.00000000
  eigenvalues    EBANDS =     -5902.76715544
  atomic energy  EATOM  =     38808.60080413
  Solvation  Ediel_sol  =         0.00000000
  ---------------------------------------------------
  free energy    TOTEN  =      -605.13549468 eV

  energy without entropy =     -605.13549468  energy(sigma->0) =     -605.13549468


--------------------------------------------------------------------------------------------------------




--------------------------------------- Iteration      1(   7)  ---------------------------------------


    POTLOK:  cpu time    0.6019: real time    0.6038
    SETDIJ:  cpu time    0.4605: real time    0.4656
     EDDAV:  cpu time   17.4416: real time   17.4860
       DOS:  cpu time    0.0003: real time    0.0003
    CHARGE:  cpu time    1.2804: real time    1.2836
    MIXING:  cpu time    0.0122: real time    0.0122
    --------------------------------------------
      LOOP:  cpu time   19.7969: real time   19.8514

 eigenvalue-minimisations  :  2064
 total energy-change (2. order) :-0.9131111E+02  (-0.8212766E+01)
 number of electron     622.0000004 magnetization      42.0891703
 augmentation part       60.5578413 magnetization      38.5098794

 Broyden mixing:
  rms(total) = 0.19286E+01    rms(broyden)= 0.19280E+01
  rms(prec ) = 0.20277E+01
  weight for this iteration     100.00

 eigenvalues of (default mixing * dielectric matrix)
  average eigenvalue GAMMA=   1.0462
  1.0462  1.0462

 Free energy of the ion-electron system (eV)
  ---------------------------------------------------
  alpha Z        PSCENC =       648.26783371
  Ewald energy   TEWEN  =     -6501.16298808
  -Hartree energ DENC   =    -30698.36275395
  -exchange      EXHF   =         0.00000000
  -V(xc)+E(xc)   XCENC  =      1904.52624406
  PAW double counting   =     27257.02834563   -26604.53501605
  entropy T*S    EENTRO =        -0.00000000
  eigenvalues    EBANDS =     -5510.80907412
  atomic energy  EATOM  =     38808.60080413
  Solvation  Ediel_sol  =         0.00000000
  ---------------------------------------------------
  free energy    TOTEN  =      -696.44660466 eV

  energy without entropy =     -696.44660466  energy(sigma->0) =     -696.44660466


--------------------------------------------------------------------------------------------------------




--------------------------------------- Iteration      1(   8)  ---------------------------------------


    POTLOK:  cpu time    0.5875: real time    0.5932
    SETDIJ:  cpu time    0.4562: real time    0.4573
     EDDAV:  cpu time   17.2714: real time   17.3145
       DOS:  cpu time    0.0003: real time    0.0003
    CHARGE:  cpu time    1.2844: real time    1.2875
    MIXING:  cpu time    0.0135: real time    0.0136
    --------------------------------------------
      LOOP:  cpu time   19.6133: real time   19.6663

 eigenvalue-minimisations  :  2032
 total energy-change (2. order) :-0.7029044E+02  (-0.3062795E+01)
 number of electron     622.0000004 magnetization      18.7587200
 augmentation part       60.8266697 magnetization      16.1768366

 Broyden mixing:
  rms(total) = 0.11002E+01    rms(broyden)= 0.10999E+01
  rms(prec ) = 0.11455E+01
  weight for this iteration     100.00

 eigenvalues of (default mixing * dielectric matrix)
  average eigenvalue GAMMA=   1.3921
  2.2709  1.1846  0.7207

 Free energy of the ion-electron system (eV)
  ---------------------------------------------------
  alpha Z        PSCENC =       648.26783371
  Ewald energy   TEWEN  =     -6501.16298808
  -Hartree energ DENC   =    -30775.64265299
  -exchange      EXHF   =         0.00000000
  -V(xc)+E(xc)   XCENC  =      1857.49729081
  PAW double counting   =     27686.39965322   -27032.06985539
  entropy T*S    EENTRO =        -0.00000000
  eigenvalues    EBANDS =     -5458.62713462
  atomic energy  EATOM  =     38808.60080413
  Solvation  Ediel_sol  =         0.00000000
  ---------------------------------------------------
  free energy    TOTEN  =      -766.73704920 eV

  energy without entropy =     -766.73704920  energy(sigma->0) =     -766.73704920


--------------------------------------------------------------------------------------------------------




--------------------------------------- Iteration      1(   9)  ---------------------------------------


    POTLOK:  cpu time    0.5899: real time    0.5918
    SETDIJ:  cpu time    0.4576: real time    0.4588
     EDDAV:  cpu time   17.2773: real time   17.3199
       DOS:  cpu time    0.0003: real time    0.0003
    CHARGE:  cpu time    1.2927: real time    1.2959
    MIXING:  cpu time    0.0129: real time    0.0129
    --------------------------------------------
      LOOP:  cpu time   19.6307: real time   19.6797

 eigenvalue-minimisations  :  2040
 total energy-change (2. order) :-0.7736367E+02  (-0.5851878E+01)
 number of electron     622.0000004 magnetization      13.4962479
 augmentation part       60.7007406 magnetization      12.1994107

 Broyden mixing:
  rms(total) = 0.49071E+00    rms(broyden)= 0.48997E+00
  rms(prec ) = 0.51493E+00
  weight for this iteration     100.00

 eigenvalues of (default mixing * dielectric matrix)
  average eigenvalue GAMMA=   1.2881
  2.4558  1.2387  0.7290  0.7290

 Free energy of the ion-electron system (eV)
  ---------------------------------------------------
  alpha Z        PSCENC =       648.26783371
  Ewald energy   TEWEN  =     -6501.16298808
  -Hartree energ DENC   =    -30892.91583161
  -exchange      EXHF   =         0.00000000
  -V(xc)+E(xc)   XCENC  =      1811.31955218
  PAW double counting   =     28127.59986230   -27472.44929644
  entropy T*S    EENTRO =        -0.00000000
  eigenvalues    EBANDS =     -5373.36065303
  atomic energy  EATOM  =     38808.60080413
  Solvation  Ediel_sol  =         0.00000000
  ---------------------------------------------------
  free energy    TOTEN  =      -844.10071682 eV

  energy without entropy =     -844.10071682  energy(sigma->0) =     -844.10071682


--------------------------------------------------------------------------------------------------------




--------------------------------------- Iteration      1(  10)  ---------------------------------------


    POTLOK:  cpu time    0.5856: real time    0.5898
    SETDIJ:  cpu time    0.4724: real time    0.4735
     EDDAV:  cpu time   17.7521: real time   17.7981
       DOS:  cpu time    0.0003: real time    0.0003
    CHARGE:  cpu time    1.2924: real time    1.2956
    MIXING:  cpu time    0.0136: real time    0.0137
    --------------------------------------------
      LOOP:  cpu time   20.1163: real time   20.1711

 eigenvalue-minimisations  :  2112
 total energy-change (2. order) :-0.1342844E+02  (-0.7965236E+00)
 number of electron     622.0000004 magnetization       4.8510387
 augmentation part       60.3413635 magnetization       4.0595296

 Broyden mixing:
  rms(total) = 0.35325E+00    rms(broyden)= 0.35279E+00
  rms(prec ) = 0.37556E+00
  weight for this iteration     100.00

 eigenvalues of (default mixing * dielectric matrix)
  average eigenvalue GAMMA=   1.4598
  2.7404  2.0069  0.9506  0.9506  0.6506

 Free energy of the ion-electron system (eV)
  ---------------------------------------------------
  alpha Z        PSCENC =       648.26783371
  Ewald energy   TEWEN  =     -6501.16298808
  -Hartree energ DENC   =    -30902.15739724
  -exchange      EXHF   =         0.00000000
  -V(xc)+E(xc)   XCENC  =      1804.16665109
  PAW double counting   =     28111.06520728   -27456.10343061
  entropy T*S    EENTRO =        -0.00000000
  eigenvalues    EBANDS =     -5370.20583344
  atomic energy  EATOM  =     38808.60080413
  Solvation  Ediel_sol  =         0.00000000
  ---------------------------------------------------
  free energy    TOTEN  =      -857.52915315 eV

  energy without entropy =     -857.52915315  energy(sigma->0) =     -857.52915315


--------------------------------------------------------------------------------------------------------




--------------------------------------- Iteration      1(  11)  ---------------------------------------


    POTLOK:  cpu time    0.5860: real time    0.5877
    SETDIJ:  cpu time    0.4555: real time    0.4568
     EDDAV:  cpu time   16.2565: real time   16.2967
       DOS:  cpu time    0.0004: real time    0.0004
    CHARGE:  cpu time    1.2860: real time    1.2891
    MIXING:  cpu time    0.0142: real time    0.0142
    --------------------------------------------
      LOOP:  cpu time   18.5987: real time   18.6448

 eigenvalue-minimisations  :  1880
 total energy-change (2. order) :-0.1662473E+02  (-0.1148938E+01)
 number of electron     622.0000004 magnetization       2.5590703
 augmentation part       60.3710306 magnetization       2.3323575

 Broyden mixing:
  rms(total) = 0.17147E+00    rms(broyden)= 0.17098E+00
  rms(prec ) = 0.18314E+00
  weight for this iteration     100.00

 eigenvalues of (default mixing * dielectric matrix)
  average eigenvalue GAMMA=   1.4223
  3.2175  1.9854  1.1598  0.7649  0.7649  0.6415

 Free energy of the ion-electron system (eV)
  ---------------------------------------------------
  alpha Z        PSCENC =       648.26783371
  Ewald energy   TEWEN  =     -6501.16298808
  -Hartree energ DENC   =    -30842.02128947
  -exchange      EXHF   =         0.00000000
  -V(xc)+E(xc)   XCENC  =      1789.70586889
  PAW double counting   =     27896.39857211   -27240.66296298
  entropy T*S    EENTRO =        -0.00000000
  eigenvalues    EBANDS =     -5433.27972297
  atomic energy  EATOM  =     38808.60080413
  Solvation  Ediel_sol  =         0.00000000
  ---------------------------------------------------
  free energy    TOTEN  =      -874.15388465 eV

  energy without entropy =     -874.15388465  energy(sigma->0) =     -874.15388465


--------------------------------------------------------------------------------------------------------




--------------------------------------- Iteration      1(  12)  ---------------------------------------


    POTLOK:  cpu time    0.5903: real time    0.5928
    SETDIJ:  cpu time    0.4561: real time    0.4572
     EDDAV:  cpu time   17.0235: real time   17.0657
       DOS:  cpu time    0.0003: real time    0.0003
    CHARGE:  cpu time    1.2731: real time    1.2762
    MIXING:  cpu time    0.0147: real time    0.0148
    --------------------------------------------
      LOOP:  cpu time   19.3580: real time   19.4070

 eigenvalue-minimisations  :  2000
 total energy-change (2. order) :-0.1976862E+01  (-0.1022782E+00)
 number of electron     622.0000004 magnetization       0.9372551
 augmentation part       60.2770376 magnetization       0.8104747

 Broyden mixing:
  rms(total) = 0.92497E-01    rms(broyden)= 0.92375E-01
  rms(prec ) = 0.10792E+00
  weight for this iteration     100.00

 eigenvalues of (default mixing * dielectric matrix)
  average eigenvalue GAMMA=   1.4921
  3.6901  2.2558  1.3154  0.9435  0.9435  0.6763  0.6206

 Free energy of the ion-electron system (eV)
  ---------------------------------------------------
  alpha Z        PSCENC =       648.26783371
  Ewald energy   TEWEN  =     -6501.16298808
  -Hartree energ DENC   =    -30834.27633385
  -exchange      EXHF   =         0.00000000
  -V(xc)+E(xc)   XCENC  =      1788.26430142
  PAW double counting   =     27892.60300537   -27237.01509063
  entropy T*S    EENTRO =        -0.00000000
  eigenvalues    EBANDS =     -5441.41227865
  atomic energy  EATOM  =     38808.60080413
  Solvation  Ediel_sol  =         0.00000000
  ---------------------------------------------------
  free energy    TOTEN  =      -876.13074657 eV

  energy without entropy =     -876.13074657  energy(sigma->0) =     -876.13074657


--------------------------------------------------------------------------------------------------------




--------------------------------------- Iteration      1(  13)  ---------------------------------------


    POTLOK:  cpu time    0.5833: real time    0.6228
    SETDIJ:  cpu time    0.4562: real time    0.4589
     EDDAV:  cpu time   16.2937: real time   16.3402
       DOS:  cpu time    0.0003: real time    0.0003
    CHARGE:  cpu time    1.2850: real time    1.2881
    MIXING:  cpu time    0.0151: real time    0.0152
    --------------------------------------------
      LOOP:  cpu time   18.6336: real time   18.7255

 eigenvalue-minimisations  :  1888
 total energy-change (2. order) :-0.1019001E+01  (-0.4158285E-01)
 number of electron     622.0000004 magnetization       0.3651600
 augmentation part       60.3214649 magnetization       0.3106735

 Broyden mixing:
  rms(total) = 0.42583E-01    rms(broyden)= 0.42513E-01
  rms(prec ) = 0.52717E-01
  weight for this iteration     100.00

 eigenvalues of (default mixing * dielectric matrix)
  average eigenvalue GAMMA=   1.4748
  3.8833  2.3496  1.3676  1.1033  0.8990  0.8990  0.6666  0.6302

 Free energy of the ion-electron system (eV)
  ---------------------------------------------------
  alpha Z        PSCENC =       648.26783371
  Ewald energy   TEWEN  =     -6501.16298808
  -Hartree energ DENC   =    -30810.77096494
  -exchange      EXHF   =         0.00000000
  -V(xc)+E(xc)   XCENC  =      1786.34199330
  PAW double counting   =     27860.37661944   -27204.78164976
  entropy T*S    EENTRO =        -0.00000000
  eigenvalues    EBANDS =     -5464.02139562
  atomic energy  EATOM  =     38808.60080413
  Solvation  Ediel_sol  =         0.00000000
  ---------------------------------------------------
  free energy    TOTEN  =      -877.14974782 eV

  energy without entropy =     -877.14974782  energy(sigma->0) =     -877.14974782


--------------------------------------------------------------------------------------------------------




--------------------------------------- Iteration      1(  14)  ---------------------------------------


    POTLOK:  cpu time    0.5888: real time    0.5923
    SETDIJ:  cpu time    0.4560: real time    0.4571
     EDDAV:  cpu time   16.6403: real time   16.6819
       DOS:  cpu time    0.0003: real time    0.0003
    CHARGE:  cpu time    1.2825: real time    1.2857
    MIXING:  cpu time    0.0160: real time    0.0160
    --------------------------------------------
      LOOP:  cpu time   18.9839: real time   19.0333

 eigenvalue-minimisations  :  1936
 total energy-change (2. order) :-0.1833881E+00  (-0.7348365E-02)
 number of electron     622.0000004 magnetization       0.1405762
 augmentation part       60.3267934 magnetization       0.1223024

 Broyden mixing:
  rms(total) = 0.24579E-01    rms(broyden)= 0.24553E-01
  rms(prec ) = 0.32109E-01
  weight for this iteration     100.00

 eigenvalues of (default mixing * dielectric matrix)
  average eigenvalue GAMMA=   1.4594
  3.9439  2.3203  1.6785  1.0598  1.0598  0.8893  0.8893  0.6576  0.6362

 Free energy of the ion-electron system (eV)
  ---------------------------------------------------
  alpha Z        PSCENC =       648.26783371
  Ewald energy   TEWEN  =     -6501.16298808
  -Hartree energ DENC   =    -30800.13958196
  -exchange      EXHF   =         0.00000000
  -V(xc)+E(xc)   XCENC  =      1785.74969093
  PAW double counting   =     27855.92452883   -27200.36046123
  entropy T*S    EENTRO =        -0.00000000
  eigenvalues    EBANDS =     -5474.21296221
  atomic energy  EATOM  =     38808.60080413
  Solvation  Ediel_sol  =         0.00000000
  ---------------------------------------------------
  free energy    TOTEN  =      -877.33313588 eV

  energy without entropy =     -877.33313588  energy(sigma->0) =     -877.33313588


--------------------------------------------------------------------------------------------------------




--------------------------------------- Iteration      1(  15)  ---------------------------------------


    POTLOK:  cpu time    0.5863: real time    0.5880
    SETDIJ:  cpu time    0.4573: real time    0.4584
     EDDAV:  cpu time   17.2959: real time   17.3399
       DOS:  cpu time    0.0003: real time    0.0003
    CHARGE:  cpu time    1.2876: real time    1.2908
    MIXING:  cpu time    0.0174: real time    0.0174
    --------------------------------------------
      LOOP:  cpu time   19.6448: real time   19.6948

 eigenvalue-minimisations  :  2040
 total energy-change (2. order) :-0.1717975E-01  (-0.1322894E-02)
 number of electron     622.0000004 magnetization       0.0528805
 augmentation part       60.3181683 magnetization       0.0453189

 Broyden mixing:
  rms(total) = 0.12614E-01    rms(broyden)= 0.12595E-01
  rms(prec ) = 0.17072E-01
  weight for this iteration     100.00

 eigenvalues of (default mixing * dielectric matrix)
  average eigenvalue GAMMA=   1.4827
  4.0046  2.3570  2.3570  1.1480  1.1480  0.8960  0.8960  0.7405  0.6307  0.6495

 Free energy of the ion-electron system (eV)
  ---------------------------------------------------
  alpha Z        PSCENC =       648.26783371
  Ewald energy   TEWEN  =     -6501.16298808
  -Hartree energ DENC   =    -30795.02930766
  -exchange      EXHF   =         0.00000000
  -V(xc)+E(xc)   XCENC  =      1785.60838818
  PAW double counting   =     27866.32549658   -27210.80207654
  entropy T*S    EENTRO =        -0.00000000
  eigenvalues    EBANDS =     -5479.15846595
  atomic energy  EATOM  =     38808.60080413
  Solvation  Ediel_sol  =         0.00000000
  ---------------------------------------------------
  free energy    TOTEN  =      -877.35031563 eV

  energy without entropy =     -877.35031563  energy(sigma->0) =     -877.35031563


--------------------------------------------------------------------------------------------------------




--------------------------------------- Iteration      1(  16)  ---------------------------------------


    POTLOK:  cpu time    0.5867: real time    0.5906
    SETDIJ:  cpu time    0.4576: real time    0.4587
     EDDAV:  cpu time   17.4097: real time   17.4537
       DOS:  cpu time    0.0003: real time    0.0003
    CHARGE:  cpu time    1.3003: real time    1.3035
    MIXING:  cpu time    0.0163: real time    0.0163
    --------------------------------------------
      LOOP:  cpu time   19.7709: real time   19.8232

 eigenvalue-minimisations  :  2048
 total energy-change (2. order) :-0.6492577E-02  (-0.4356070E-03)
 number of electron     622.0000004 magnetization       0.0305970
 augmentation part       60.3188220 magnetization       0.0276847

 Broyden mixing:
  rms(total) = 0.86889E-02    rms(broyden)= 0.86856E-02
  rms(prec ) = 0.11509E-01
  weight for this iteration     100.00

 eigenvalues of (default mixing * dielectric matrix)
  average eigenvalue GAMMA=   1.4421
  4.0111  2.4175  2.4175  1.1973  0.9554  0.9554  0.9661  0.9661  0.7012  0.6380
  0.6380

 Free energy of the ion-electron system (eV)
  ---------------------------------------------------
  alpha Z        PSCENC =       648.26783371
  Ewald energy   TEWEN  =     -6501.16298808
  -Hartree energ DENC   =    -30791.30101548
  -exchange      EXHF   =         0.00000000
  -V(xc)+E(xc)   XCENC  =      1785.48318035
  PAW double counting   =     27870.09100156   -27214.57651304
  entropy T*S    EENTRO =        -0.00000000
  eigenvalues    EBANDS =     -5482.75911137
  atomic energy  EATOM  =     38808.60080413
  Solvation  Ediel_sol  =         0.00000000
  ---------------------------------------------------
  free energy    TOTEN  =      -877.35680821 eV

  energy without entropy =     -877.35680821  energy(sigma->0) =     -877.35680821


--------------------------------------------------------------------------------------------------------




--------------------------------------- Iteration      1(  17)  ---------------------------------------


    POTLOK:  cpu time    0.5864: real time    0.5881
    SETDIJ:  cpu time    0.4570: real time    0.4582
     EDDAV:  cpu time   17.1173: real time   17.1613
       DOS:  cpu time    0.0004: real time    0.0004
    CHARGE:  cpu time    1.2756: real time    1.2788
    MIXING:  cpu time    0.0178: real time    0.0178
    --------------------------------------------
      LOOP:  cpu time   19.4544: real time   19.5044

 eigenvalue-minimisations  :  2000
 total energy-change (2. order) :-0.4602976E-02  (-0.2052855E-03)
 number of electron     622.0000004 magnetization       0.0095040
 augmentation part       60.3220850 magnetization       0.0087277

 Broyden mixing:
  rms(total) = 0.41467E-02    rms(broyden)= 0.41390E-02
  rms(prec ) = 0.63845E-02
  weight for this iteration     100.00

 eigenvalues of (default mixing * dielectric matrix)
  average eigenvalue GAMMA=   1.4823
  4.0207  2.6945  2.6945  1.4298  1.0451  1.0451  1.0701  0.9169  0.9169  0.6861
  0.6217  0.6462

 Free energy of the ion-electron system (eV)
  ---------------------------------------------------
  alpha Z        PSCENC =       648.26783371
  Ewald energy   TEWEN  =     -6501.16298808
  -Hartree energ DENC   =    -30789.29834260
  -exchange      EXHF   =         0.00000000
  -V(xc)+E(xc)   XCENC  =      1785.42292764
  PAW double counting   =     27870.89712474   -27215.37596013
  entropy T*S    EENTRO =        -0.00000000
  eigenvalues    EBANDS =     -5484.71281062
  atomic energy  EATOM  =     38808.60080413
  Solvation  Ediel_sol  =         0.00000000
  ---------------------------------------------------
  free energy    TOTEN  =      -877.36141118 eV

  energy without entropy =     -877.36141118  energy(sigma->0) =     -877.36141118


--------------------------------------------------------------------------------------------------------




[...]
      -0.000644897427968       0.000004703570650      -0.000874629560976
       0.000057463433205       0.001055540516599      -0.002301124437653
      -0.001582542194720      -0.001127867822747      -0.000232155420916
       0.000217625172706       0.000859475481818       0.000093349626042
      -0.000563565755112      -0.000208240559093      -0.000622654540799
       0.001495948596515      -0.000124511799950      -0.000720529959550
       0.000957056161614       0.000819834640863       0.001231939128786
      -0.000374239424058      -0.000921740278353      -0.000943745367161
       0.001640860663232       0.000378801453632       0.000820547878175
       0.000555112501999       0.000101919650317      -0.002275724647470
       0.000495582320091       0.000483938638877       0.000239910703929
      -0.000814497653651      -0.000515420983670       0.000398809697532
       0.001135901694245       0.000955402105822      -0.000841230915070
       0.001139423581296      -0.000457174732735      -0.000674580710506
      -0.000794804991848       0.001204598952300      -0.000739554729573
       0.001287508710754       0.000205857007645      -0.000942604639314
      -0.000726194486249      -0.000033073000721       0.000227409476717
       0.000822494156671       0.000652148210127       0.000242547539044
      -0.000671489467639       0.000714222858141      -0.001383870998881
      -0.001776607515278       0.001841237238220      -0.000894273003213
       0.000560472868125      -0.001441630478905       0.001104499184252
      -0.000209938368151       0.001876311641057      -0.000258602256532
      -0.000970813720728       0.002105628993779       0.000224080843490
       0.001625384176862       0.000823651411066       0.000679612413892
      -0.000969244232717      -0.001397484660994       0.000746474761377
       0.000827099575660      -0.000445685243326      -0.000020611966780
       0.000995470209630       0.001080611559232      -0.004013818197470
      -0.001392619289265      -0.001683341226902      -0.001600090405138
       0.000578465412718       0.001418196098549       0.000248801504881
       0.002524061658885       0.003416345075227      -0.001868369583733
       0.000744109085099       0.000784064982905      -0.001378905121333
      -0.000908212225238       0.002580290890386      -0.001843515803796
      -0.000080845497597       0.000123140548635      -0.000621865086851
      -0.000014667385930       0.000498745096289      -0.000045363295099
       0.001014856901107       0.000378653306776      -0.000285346299092
       0.001391760061133       0.001120522642135      -0.000349925400255
       0.000655946240617       0.000662482514151      -0.002471964149003
      -0.000731518204242      -0.000511973984421      -0.000444134864608
      -0.000035479215312       0.000772963003247      -0.000911762820588
       0.000462125999607       0.001186223956512      -0.000807138284584
      -0.000878001633008       0.002152043852782      -0.001155964901419
       0.001240264782437       0.000737714148821      -0.001028792201049
      -0.000133016388331       0.003692377532508       0.001930165486157
       0.000688084702561      -0.000738229161772      -0.001267962561576
      -0.003363342849638       0.000577298828391      -0.001878886758536
       0.003484350942182       0.001173085771222      -0.001776673458187
      -0.000140065111779       0.000592379852798       0.000033858591481
       0.001703070087394       0.001292400864067       0.000905356219387
      -0.001317454284807      -0.000956088107434      -0.002136911129620
      -0.000537918531018       0.001100063791467      -0.000558690251759
       0.000313258667506       0.001080735502977      -0.001816442801267
       0.000902028778615       0.001435519579113      -0.000859700381645
       0.000718322707945      -0.000159737397252      -0.000376173445195
       0.001408433451789       0.001749329220148      -0.002623677935519
       0.001273071409742       0.001843210545395      -0.001988584528366
      -0.000317254095188       0.000366647604037      -0.001476119879385
       0.001019117986259       0.000151017972015       0.000387141684728
      -0.000327155425962       0.000101303885348      -0.004581035812955
       0.000748475749921       0.001113030162537      -0.005475969418506
      -0.001925838978534      -0.000595027852848      -0.000528289508249
       0.000056866817438       0.000854669907622      -0.000416431128181
       0.006836691676470      -0.013899184413468       0.048415126468969
      -0.003390924401131       0.010635191857484       0.013210887298450
      -0.000425355606342      -0.000191054558933      -0.000470851388349
       0.000024873028443       0.000719581676919       0.000255886329080
       0.000650001263464       0.000780435576625      -0.000226968616619
       0.000967426270683       0.000551220132018      -0.000576026732437
      -0.000231397832370      -0.001187945512122      -0.000210270737399
      -0.000837783906487       0.000597501902364      -0.001898467748004
       0.001049777975311       0.000455826047254      -0.000363952655562
      -0.000513365092139       0.000680772046883      -0.001814706837362
      -0.000663825081268       0.000514994436144      -0.000138338628356
      -0.000243315838849       0.000422008131822       0.000217354269283
      -0.001163501971780      -0.000745548579964      -0.000131950793329
       0.000793121080066      -0.001493745336492      -0.000141881249135
       0.000466244509028       0.003620769237134      -0.000104778262833
       0.000112026758864       0.000401215942430      -0.001381687504274
      -0.000324861932976       0.000233922112558      -0.000334016711028
      -0.000332821240518      -0.000272860940180       0.001461333281499
       0.000364491696859       0.001436462766594      -0.001089020604011
       0.001159448200377      -0.000328817212373       0.000115849789296
       0.000098230490294       0.000592561716788       0.001978191591858
       0.000134961027863      -0.000523064527453      -0.000853648905784
       0.000219085415318      -0.000517595556337      -0.001186762073212
      -0.001253763911453       0.001983508983247      -0.000806628856510
       0.001413031484893       0.000789868845020       0.001778461932755
       0.002037917899721       0.000786974574309      -0.000728148153307
       0.001211968057500       0.000547351601819      -0.000320020609927
       0.000032913282774       0.001640430312363       0.000187736563939
       0.000178460714496       0.000735446798883       0.000727543815091
      -0.002752560555500      -0.001276406729831       0.000832614838516
       0.002680149920738       0.000017006566661       0.001695320134425
       0.000009310598564       0.000025769572052       0.000575015778556
      -0.001109668687907       0.000736172594110      -0.000614618947254
       0.000046684885458       0.000391960072752       0.001334444891247
       0.000808641915760       0.000508018971774      -0.000001678921758
       0.001004088736627       0.001099884737848      -0.001615293357667
      -0.000186312644891       0.000912566408539      -0.000129325352786
      -0.000604703263040       0.001562569155801      -0.000169441895770
      -0.000446951769791       0.000508811361833      -0.000613498731168
      -0.000331221003324       0.000144296893392      -0.000344233054703
       0.001770582709258      -0.001524946380329      -0.000701298149501
      -0.026147023828000      -0.056930265653032      -0.001930268935658
DYMAT: ------------------------------
DYMAT: DEGREE OF FREEDOM  73  1  1
DYMAT: ------------------------------
DYMAT: DEGREE OF FREEDOM  73  2  2
DYMAT: ------------------------------
DYMAT: DEGREE OF FREEDOM  73  3  3
DYMAT: ------------------------------
DYMAT: DEGREE OF FREEDOM  74  1  4
DYMAT: ------------------------------
DYMAT: DEGREE OF FREEDOM  74  2  5
DYMAT: ------------------------------
DYMAT: DEGREE OF FREEDOM  74  3  6
DYMAT: ------------------------------
DYMAT: DEGREE OF FREEDOM 114  1  7
DYMAT: ------------------------------
DYMAT: DEGREE OF FREEDOM 114  2  8
DYMAT: ------------------------------
DYMAT: DEGREE OF FREEDOM 114  3  9
DYMAT: LEAVING
 stress matrix after NEB project (eV)
    -23.34786     -0.06162      0.58106
     -0.06162    -24.62632     -0.14829
      0.58106     -0.14829    -28.05121
  FORCES: max atom, RMS     0.062677    0.007998
  FORCE total and by dimension    0.085400    0.056930
  Stress total and by dimension   44.036074   28.051214


--------------------------------------------------------------------------------------------------------


     LOOP+:  cpu time  146.1498: real time  146.5482
    4ORBIT:  cpu time    0.0000: real time    0.0000
 


 total charge     
 
# of ion       s       p       d       tot
------------------------------------------
    1        1.573   3.695   0.000   5.268
    2        1.571   3.712   0.000   5.283
    3        1.576   3.699   0.000   5.275
    4        1.573   3.694   0.000   5.267
    5        1.572   3.702   0.000   5.275
    6        1.574   3.669   0.000   5.243
    7        1.574   3.708   0.000   5.283
    8        1.575   3.669   0.000   5.244
    9        1.577   3.675   0.000   5.252
   10        1.573   3.696   0.000   5.269
   11        1.575   3.695   0.000   5.270
   12        1.576   3.688   0.000   5.264
   13        1.569   3.716   0.000   5.286
   14        1.575   3.657   0.000   5.232
   15        1.571   3.717   0.000   5.288
   16        1.575   3.636   0.000   5.211
   17        1.574   3.686   0.000   5.260
   18        1.575   3.666   0.000   5.241
   19        1.573   3.708   0.000   5.281
   20        1.577   3.698   0.000   5.274
   21        1.578   3.699   0.000   5.277
   22        1.574   3.701   0.000   5.274
   23        1.578   3.701   0.000   5.279
   24        1.576   3.699   0.000   5.275
   25        1.575   3.700   0.000   5.275
   26        1.580   3.660   0.000   5.239
   27        1.575   3.645   0.000   5.221
   28        1.575   3.703   0.000   5.278
   29        1.575   3.712   0.000   5.287
   30        1.576   3.699   0.000   5.275
   31        1.576   3.709   0.000   5.284
   32        1.579   3.667   0.000   5.246
   33        1.576   3.701   0.000   5.277
   34        1.576   3.702   0.000   5.277
   35        1.576   3.704   0.000   5.280
   36        1.577   3.697   0.000   5.274
   37        1.574   3.711   0.000   5.284
   38        1.575   3.649   0.000   5.224
   39        1.570   3.735   0.000   5.304
   40        1.570   3.718   0.000   5.289
   41        1.570   3.728   0.000   5.298
   42        1.574   3.704   0.000   5.278
   43        1.574   3.715   0.000   5.289
   44        1.574   3.635   0.000   5.209
   45        1.577   3.701   0.000   5.278
   46        1.574   3.705   0.000   5.279
   47        1.570   3.721   0.000   5.292
   48        1.572   3.716   0.000   5.288
   49        1.574   3.698   0.000   5.272
   50        1.570   3.720   0.000   5.290
   51        1.574   3.712   0.000   5.286
   52        1.578   3.691   0.000   5.268
   53        1.574   3.698   0.000   5.273
   54        1.576   3.675   0.000   5.251
   55        1.573   3.708   0.000   5.281
   56        1.574   3.698   0.000   5.272
   57        1.579   3.656   0.000   5.236
   58        1.574   3.694   0.000   5.268
   59        1.576   3.685   0.000   5.262
   60        1.573   3.708   0.000   5.282
   61        1.578   3.660   0.000   5.238
   62        1.569   3.727   0.000   5.295
   63        1.572   3.707   0.000   5.279
   64        1.576   3.688   0.000   5.264
   65        1.571   3.708   0.000   5.279
   66        1.577   3.657   0.000   5.234
   67        1.573   3.692   0.000   5.265
   68        1.576   3.701   0.000   5.277
   69        1.570   3.719   0.000   5.288
   70        1.570   3.723   0.000   5.293
   71        1.576   3.685   0.000   5.261
   72        1.576   3.655   0.000   5.231
   73        1.640   3.527   0.000   5.167
   74        1.616   3.571   0.000   5.187
   75        0.639   0.990   0.000   1.629
   76        0.645   0.994   0.000   1.639
   77        0.646   1.001   0.000   1.647
   78        0.637   0.982   0.000   1.619
   79        0.641   0.994   0.000   1.634
   80        0.646   0.992   0.000   1.638
   81        0.639   0.989   0.000   1.628
   82        0.645   0.996   0.000   1.641
   83        0.638   0.985   0.000   1.624
   84        0.640   0.990   0.000   1.630
   85        0.640   0.993   0.000   1.634
   86        0.643   1.002   0.000   1.645
   87        0.645   0.994   0.000   1.639
   88        0.639   0.986   0.000   1.624
   89        0.641   0.991   0.000   1.631
   90        0.639   0.988   0.000   1.627
   91        0.643   0.992   0.000   1.635
   92        0.641   0.993   0.000   1.635
   93        0.646   0.997   0.000   1.643
   94        0.641   0.994   0.000   1.636
   95        0.640   0.990   0.000   1.630
   96        0.645   0.990   0.000   1.635
   97        0.642   0.989   0.000   1.632
   98        0.639   0.981   0.000   1.620
   99        0.641   0.997   0.000   1.638
  100        0.646   0.993   0.000   1.639
  101        0.643   0.989   0.000   1.632
  102        0.646   0.995   0.000   1.641
  103        0.642   0.992   0.000   1.634
  104        0.641   0.994   0.000   1.635
  105        0.642   0.993   0.000   1.635
  106        0.640   0.988   0.000   1.628
  107        0.638   0.985   0.000   1.622
  108        0.342   0.452   0.000   0.794
  109        0.341   0.454   0.000   0.795
  110        0.340   0.453   0.000   0.793
  111        0.112   0.064   9.211   9.387
  112        0.122   0.079   9.212   9.413
  113        0.128   0.078   9.197   9.404
  114        0.933   1.800   0.000   2.733
--------------------------------------------------
tot        140.104 309.187  27.620 476.912
 


 magnetization (x)
 
# of ion       s       p       d       tot
------------------------------------------
    1        0.000  -0.000   0.000  -0.000
    2       -0.000   0.000   0.000   0.000
    3       -0.000   0.000   0.000   0.000
    4        0.000  -0.000   0.000  -0.000
    5        0.000   0.000   0.000   0.000
    6        0.000  -0.000   0.000   0.000
    7       -0.000  -0.000   0.000  -0.000
    8       -0.000   0.000   0.000   0.000
    9       -0.000   0.000   0.000   0.000
   10       -0.000  -0.000   0.000  -0.000
   11       -0.000  -0.000   0.000  -0.000
   12       -0.000   0.000   0.000   0.000
   13        0.000  -0.000   0.000   0.000
   14       -0.000  -0.000   0.000  -0.000
   15        0.000   0.000   0.000   0.000
   16        0.000  -0.000   0.000  -0.000
   17       -0.000   0.000   0.000   0.000
   18       -0.000   0.000   0.000   0.000
   19       -0.000   0.000   0.000   0.000
   20       -0.000   0.000   0.000  -0.000
   21       -0.000  -0.000   0.000  -0.000
   22       -0.000  -0.000   0.000  -0.000
   23        0.000   0.000   0.000   0.000
   24        0.000   0.000   0.000   0.000
   25       -0.000  -0.000   0.000  -0.000
   26        0.000  -0.000   0.000   0.000
   27        0.000  -0.000   0.000  -0.000
   28       -0.000   0.000   0.000   0.000
   29       -0.000  -0.000   0.000  -0.000
   30       -0.000  -0.000   0.000  -0.000
   31       -0.000  -0.000   0.000  -0.000
   32       -0.000   0.000   0.000   0.000
   33        0.000   0.000   0.000   0.000
   34        0.000  -0.000   0.000  -0.000
   35        0.000  -0.000   0.000  -0.000
   36       -0.000  -0.000   0.000  -0.000
   37        0.000   0.000   0.000   0.000
   38        0.000   0.000   0.000   0.000
   39       -0.000   0.000   0.000   0.000
   40        0.000  -0.000   0.000  -0.000
   41       -0.000  -0.000   0.000  -0.000
   42        0.000   0.000   0.000   0.000
   43        0.000   0.000   0.000   0.000
   44        0.000  -0.000   0.000  -0.000
   45        0.000  -0.000   0.000  -0.000
   46       -0.000  -0.000   0.000  -0.000
   47       -0.000   0.000   0.000   0.000
   48        0.000  -0.000   0.000  -0.000
   49       -0.000   0.000   0.000   0.000
   50        0.000  -0.000   0.000  -0.000
   51        0.000   0.000   0.000   0.000
   52       -0.000  -0.000   0.000  -0.000
   53        0.000  -0.000   0.000  -0.000
   54       -0.000   0.000   0.000   0.000
   55       -0.000   0.000   0.000   0.000
   56       -0.000  -0.000   0.000  -0.000
   57        0.000   0.000   0.000   0.000
   58        0.000  -0.000   0.000  -0.000
   59       -0.000   0.000   0.000   0.000
   60       -0.000   0.000   0.000   0.000
   61        0.000  -0.000   0.000  -0.000
   62       -0.000   0.000   0.000   0.000
   63        0.000   0.000   0.000   0.000
   64        0.000  -0.000   0.000  -0.000
   65       -0.000  -0.000   0.000  -0.000
   66       -0.000  -0.000   0.000  -0.000
   67        0.000  -0.000   0.000  -0.000
   68        0.000  -0.000   0.000  -0.000
   69        0.000  -0.000   0.000  -0.000
   70       -0.000  -0.000   0.000  -0.000
   71        0.000  -0.000   0.000  -0.000
   72       -0.000   0.000   0.000   0.000
   73       -0.000   0.000   0.000   0.000
   74        0.000   0.000   0.000   0.000
   75       -0.000  -0.000   0.000  -0.000
   76        0.000   0.000   0.000   0.000
   77        0.000  -0.000   0.000  -0.000
   78       -0.000  -0.000   0.000  -0.000
   79       -0.000   0.000   0.000   0.000
   80       -0.000  -0.000   0.000  -0.000
   81       -0.000  -0.000   0.000  -0.000
   82       -0.000  -0.000   0.000  -0.000
   83       -0.000  -0.000   0.000  -0.000
   84        0.000  -0.000   0.000  -0.000
   85        0.000   0.000   0.000   0.000
   86        0.000  -0.000   0.000  -0.000
   87        0.000  -0.000   0.000  -0.000
   88       -0.000  -0.000   0.000  -0.000
   89       -0.000   0.000   0.000   0.000
   90       -0.000   0.000   0.000  -0.000
   91        0.000   0.000   0.000   0.000
   92        0.000   0.000   0.000   0.000
   93        0.000   0.000   0.000   0.000
   94       -0.000   0.000   0.000   0.000
   95       -0.000   0.000   0.000  -0.000
   96        0.000   0.000   0.000   0.000
   97       -0.000  -0.000   0.000  -0.000
   98       -0.000  -0.000   0.000  -0.000
   99        0.000  -0.000   0.000  -0.000
  100        0.000  -0.000   0.000  -0.000
  101       -0.000  -0.000   0.000  -0.000
  102        0.000   0.000   0.000   0.000
  103       -0.000  -0.000   0.000  -0.000
  104        0.000   0.000   0.000   0.000
  105        0.000  -0.000   0.000  -0.000
  106       -0.000  -0.000   0.000  -0.000
  107       -0.000  -0.000   0.000  -0.000
  108       -0.000  -0.000   0.000  -0.000
  109        0.000   0.000   0.000   0.000
  110       -0.000  -0.000   0.000  -0.000
  111       -0.000   0.000  -0.000  -0.000
  112       -0.000  -0.000  -0.000  -0.000
  113       -0.000   0.000  -0.000  -0.000
  114        0.000  -0.000   0.000  -0.000
--------------------------------------------------
tot          0.000  -0.000  -0.000  -0.000
 

 total amount of memory used by VASP MPI-rank0   211522. kBytes
=======================================================================

   base      :      30000. kBytes
   nonlr-proj:      18805. kBytes
   fftplans  :      63994. kBytes
   grid      :      59474. kBytes
   one-center:        902. kBytes
   wavefun   :      38347. kBytes
 
  
  
 General timing and accounting informations for this job:
 ========================================================
  
                  Total CPU time used (sec):     2201.631
                            User time (sec):     2140.624
                          System time (sec):       61.007
                         Elapsed time (sec):     2208.698
  
                   Maximum memory used (kb):      332416.
                   Average memory used (kb):           0.
  
                          Minor page faults:       859393
                          Major page faults:            9
                 Voluntary context switches:         1144
