 vasp.5.4.4.18Apr17-6-g9f103f2a35 (build Dec 31 2018 11:41:54) complex          
  
 executed on             LinuxIFC date 2022.06.27  13:23:40
 running on   16 total cores
 distrk:  each k-point on   16 cores,    1 groups
 distr:  one band on NCORES_PER_BAND=   4 cores,    4 groups


--------------------------------------------------------------------------------------------------------


 INCAR:
 POTCAR:   PAW_PBE O 08Apr2002                    
 POTCAR:   PAW_PBE Si 05Jan2001                   
 POTCAR:   PAW_PBE Al 04Jan2001                   
 POTCAR:   PAW_PBE Ag 06Sep2000                   
 POTCAR:   PAW_PBE O 08Apr2002                    
   VRHFIN =O: s2p4                                                              
   LEXCH  = PE                                                                  
   EATOM  =   432.3788 eV,   31.7789 Ry                                         
                                                                                
   TITEL  = PAW_PBE O 08Apr2002                                                 
   LULTRA =        F    use ultrasoft PP ?                                      
   IUNSCR =        0    unscreen: 0-lin 1-nonlin 2-no                           
   RPACOR =     .000    partial core radius                                     
   POMASS =   16.000; ZVAL   =    6.000    mass and valenz                      
   RCORE  =    1.520    outmost cutoff radius                                   
   RWIGS  =    1.550; RWIGS  =     .820    wigner-seitz radius (au A)           
   ENMAX  =  400.000; ENMIN  =  300.000 eV                                      
   ICORE  =        2    local potential                                         
   LCOR   =        T    correct aug charges                                     
   LPAW   =        T    paw PP                                                  
   EAUG   =  605.392                                                            
   DEXC   =     .000                                                            
   RMAX   =    2.264    core radius for proj-oper                               
   RAUG   =    1.300    factor for augmentation sphere                          
   RDEP   =    1.550    radius for radial grids                                 
   QCUT   =   -5.520; QGAM   =   11.041    optimization parameters              
                                                                                
   Description                                                                  
     l     E      TYP  RCUT    TYP  RCUT                                        
     0   .000     23  1.200                                                     
     0  -.700     23  1.200                                                     
     1   .000     23  1.520                                                     
     1   .600     23  1.520                                                     
     2   .000      7  1.500                                                     
  local pseudopotential read in
  atomic valenz-charges read in
  non local Contribution for L=           0  read in
    real space projection operators read in
  non local Contribution for L=           0  read in
    real space projection operators read in
  non local Contribution for L=           1  read in
    real space projection operators read in
  non local Contribution for L=           1  read in
    real space projection operators read in
    PAW grid and wavefunctions read in
 
   number of l-projection  operators is LMAX  =           4
   number of lm-projection operators is LMMAX =           8
 
 POTCAR:   PAW_PBE Si 05Jan2001                   
   VRHFIN =Si: s2p2                                                             
   LEXCH  = PE                                                                  
   EATOM  =   103.0669 eV,    7.5752 Ry                                         
                                                                                
   TITEL  = PAW_PBE Si 05Jan2001                                                
   LULTRA =        F    use ultrasoft PP ?                                      
   IUNSCR =        1    unscreen: 0-lin 1-nonlin 2-no                           
   RPACOR =    1.500    partial core radius                                     
   POMASS =   28.085; ZVAL   =    4.000    mass and valenz                      
   RCORE  =    1.900    outmost cutoff radius                                   
   RWIGS  =    2.480; RWIGS  =    1.312    wigner-seitz radius (au A)           
   ENMAX  =  245.345; ENMIN  =  184.009 eV                                      
   ICORE  =        2    local potential                                         
   LCOR   =        T    correct aug charges                                     
   LPAW   =        T    paw PP                                                  
   EAUG   =  322.069                                                            
   DEXC   =    -.007                                                            
   RMAX   =    2.944    core radius for proj-oper                               
   RAUG   =    1.300    factor for augmentation sphere                          
   RDEP   =    1.993    radius for radial grids                                 
   QCUT   =   -4.246; QGAM   =    8.493    optimization parameters              
                                                                                
   Description                                                                  
     l     E      TYP  RCUT    TYP  RCUT                                        
     0   .000     23  1.900                                                     
     0   .000     23  1.900                                                     
     1   .000     23  1.900                                                     
     1   .000     23  1.900                                                     
     2   .000      7  1.900                                                     
  local pseudopotential read in
  partial core-charges read in
  atomic valenz-charges read in
  non local Contribution for L=           0  read in
    real space projection operators read in
  non local Contribution for L=           0  read in
    real space projection operators read in
  non local Contribution for L=           1  read in
    real space projection operators read in
  non local Contribution for L=           1  read in
    real space projection operators read in
    PAW grid and wavefunctions read in
 
   number of l-projection  operators is LMAX  =           4
   number of lm-projection operators is LMMAX =           8
 
 POTCAR:   PAW_PBE Al 04Jan2001                   
   VRHFIN =Al: s2p1                                                             
   LEXCH  = PE                                                                  
   EATOM  =    53.5387 eV,    3.9350 Ry                                         
                                                                                
   TITEL  = PAW_PBE Al 04Jan2001                                                
   LULTRA =        F    use ultrasoft PP ?                                      
   IUNSCR =        1    unscreen: 0-lin 1-nonlin 2-no                           
   RPACOR =    1.500    partial core radius                                     
   POMASS =   26.982; ZVAL   =    3.000    mass and valenz                      
   RCORE  =    1.900    outmost cutoff radius                                   
   RWIGS  =    2.650; RWIGS  =    1.402    wigner-seitz radius (au A)           
   ENMAX  =  240.300; ENMIN  =  180.225 eV                                      
   ICORE  =        2    local potential                                         
   LCOR   =        T    correct aug charges                                     
   LPAW   =        T    paw PP                                                  
   EAUG   =  291.052                                                            
   DEXC   =    -.041                                                            
   RMAX   =    2.974    core radius for proj-oper                               
   RAUG   =    1.300    factor for augmentation sphere                          
   RDEP   =    1.966    radius for radial grids                                 
   QCUT   =   -4.203; QGAM   =    8.405    optimization parameters              
                                                                                
   Description                                                                  
     l     E      TYP  RCUT    TYP  RCUT                                        
     0   .000     23  1.900                                                     
     0   .000     23  1.900                                                     
     1   .000     23  1.900                                                     
     1  1.000     23  1.900                                                     
     2   .000      7  1.900                                                     
  local pseudopotential read in
  partial core-charges read in
  atomic valenz-charges read in
  non local Contribution for L=           0  read in
    real space projection operators read in
  non local Contribution for L=           0  read in
    real space projection operators read in
  non local Contribution for L=           1  read in
    real space projection operators read in
  non local Contribution for L=           1  read in
    real space projection operators read in
    PAW grid and wavefunctions read in
 
   number of l-projection  operators is LMAX  =           4
   number of lm-projection operators is LMMAX =           8
 
 POTCAR:   PAW_PBE Ag 06Sep2000                   
   VRHFIN =Ag : s1 d10                                                          
   LEXCH  = PE                                                                  
   EATOM  =  1037.4134 eV,   76.2477 Ry                                         
                                                                                
   TITEL  = PAW_PBE Ag 06Sep2000                                                
   LULTRA =        F    use ultrasoft PP ?                                      
   IUNSCR =        1    unscreen: 0-lin 1-nonlin 2-no                           
   RPACOR =    2.000    partial core radius                                     
   POMASS =  107.868; ZVAL   =   11.000    mass and valenz                      
   RCORE  =    2.400    outmost cutoff radius                                   
   RWIGS  =    2.840; RWIGS  =    1.503    wigner-seitz radius (au A)           
   ENMAX  =  249.846; ENMIN  =  187.385 eV                                      
   RCLOC  =    1.962    cutoff for local pot                                    
   LCOR   =        T    correct aug charges                                     
   LPAW   =        T    paw PP                                                  
   EAUG   =  412.496                                                            
   DEXC   =    -.047                                                            
   RMAX   =    2.917    core radius for proj-oper                               
   RAUG   =    1.300    factor for augmentation sphere                          
   RDEP   =    2.416    radius for radial grids                                 
   QCUT   =   -4.285; QGAM   =    8.570    optimization parameters              
                                                                                
   Description                                                                  
     l     E      TYP  RCUT    TYP  RCUT                                        
     2   .000     23  2.400                                                     
     2   .000     23  2.400                                                     
     0   .000     23  2.400                                                     
     0   .000     23  2.400                                                     
     1  -.200     23  2.400                                                     
     1  1.500     23  2.400                                                     
     3   .000      7   .000                                                     
  local pseudopotential read in
  partial core-charges read in
  atomic valenz-charges read in
  non local Contribution for L=           2  read in
    real space projection operators read in
  non local Contribution for L=           2  read in
    real space projection operators read in
  non local Contribution for L=           0  read in
    real space projection operators read in
  non local Contribution for L=           0  read in
    real space projection operators read in
  non local Contribution for L=           1  read in
    real space projection operators read in
  non local Contribution for L=           1  read in
    real space projection operators read in
    PAW grid and wavefunctions read in
 
   number of l-projection  operators is LMAX  =           6
   number of lm-projection operators is LMMAX =          18
 
 Optimization of the real space projectors (new method)

 maximal supplied QI-value         = 24.76
 optimisation between [QCUT,QGAM] = [ 10.15, 20.30] = [ 28.85,115.39] Ry 
 Optimized for a Real-space Cutoff    1.51 Angstroem

   l    n(q)    QCUT    max X(q) W(low)/X(q) W(high)/X(q)  e(spline) 
   0      9    10.150     4.192    0.32E-04    0.13E-04    0.13E-06
   0      9    10.150     8.473    0.18E-03    0.20E-03    0.43E-06
   1      9    10.150     2.474    0.32E-04    0.33E-04    0.64E-07
   1      9    10.150     3.912    0.13E-03    0.16E-03    0.33E-06
 Optimization of the real space projectors (new method)

 maximal supplied QI-value         = 19.84
 optimisation between [QCUT,QGAM] = [ 10.12, 20.44] = [ 28.68,116.96] Ry 
 Optimized for a Real-space Cutoff    1.38 Angstroem

   l    n(q)    QCUT    max X(q) W(low)/X(q) W(high)/X(q)  e(spline) 
   0      8    10.119     8.708    0.16E-04    0.67E-05    0.60E-08
   0      8    10.119   106.241    0.56E-04    0.11E-03    0.54E-07
   1      8    10.119     5.901    0.16E-04    0.16E-05    0.22E-07
   1      8    10.119    73.241    0.22E-03    0.17E-03    0.18E-06
 Optimization of the real space projectors (new method)

 maximal supplied QI-value         = 19.84
 optimisation between [QCUT,QGAM] = [ 10.12, 20.44] = [ 28.68,116.96] Ry 
 Optimized for a Real-space Cutoff    1.26 Angstroem

   l    n(q)    QCUT    max X(q) W(low)/X(q) W(high)/X(q)  e(spline) 
   0      8    10.119    13.410    0.28E-04    0.17E-04    0.51E-08
   0      8    10.119   140.052    0.10E-03    0.16E-03    0.42E-07
   1      7    10.119     9.624    0.38E-04    0.42E-05    0.15E-07
   1      7    10.119    53.353    0.23E-03    0.17E-03    0.13E-06
 Optimization of the real space projectors (new method)

 maximal supplied QI-value         = 15.68
 optimisation between [QCUT,QGAM] = [ 10.20, 20.39] = [ 29.11,116.42] Ry 
 Optimized for a Real-space Cutoff    1.51 Angstroem

   l    n(q)    QCUT    max X(q) W(low)/X(q) W(high)/X(q)  e(spline) 
   2      8    10.195     3.831    0.11E-04    0.20E-04    0.48E-07
   2      8    10.195    20.184    0.23E-03    0.42E-03    0.20E-06
   0      9    10.195    16.770    0.13E-04    0.90E-05    0.63E-08
   0      9    10.195    80.708    0.19E-03    0.15E-03    0.44E-07
   1      9    10.195     6.696    0.12E-04    0.45E-04    0.30E-07
   1      9    10.195     8.973    0.12E-03    0.15E-03    0.13E-06
 PAW_PBE O 08Apr2002                    :
 energy of atom  1       EATOM= -432.3788
 kinetic energy error for atom=    0.1156 (will be added to EATOM!!)
 PAW_PBE Si 05Jan2001                   :
 energy of atom  2       EATOM= -103.0669
 kinetic energy error for atom=    0.0012 (will be added to EATOM!!)
 PAW_PBE Al 04Jan2001                   :
 energy of atom  3       EATOM=  -53.5387
 kinetic energy error for atom=    0.0005 (will be added to EATOM!!)
 PAW_PBE Ag 06Sep2000                   :
 energy of atom  4       EATOM=-1037.4134
 kinetic energy error for atom=    0.0091 (will be added to EATOM!!)
 
 
 POSCAR: O  C                                    
  positions in direct lattice
  velocities in cartesian coordinates
 exchange correlation table for  LEXCH =        8
   RHO(1)=    0.500       N(1)  =     2000
   RHO(2)=  100.500       N(2)  =     4000

 VTST: version 3.2, (02/03/18)

 CHAIN: initializing optimizer
 
 OPT: Using VASP Dynamics algorithm
 CHAIN: Read ICHAIN            0
 
 POSCAR: O  C                                    
  positions in direct lattice
  velocities in cartesian coordinates
 


--------------------------------------------------------------------------------------------------------


 ion  position               nearest neighbor table
   1  0.896  0.100  0.119-  75 1.63  82 1.63
   2  0.104  0.889  0.877-  76 1.62  81 1.63
   3  0.892  0.790  0.125-  85 1.61  77 1.63
   4  0.092  0.195  0.867-  78 1.63  84 1.63
   5  0.194  0.102  0.115-  79 1.63  83 1.63
   6  0.800  0.906  0.881-  80 1.59 108 1.72
   7  0.558  0.424  0.460-  86 1.62  92 1.63
   8  0.763  0.228  0.217-  91 1.59 109 1.73
   9  0.565  0.141  0.471-  96 1.64  87 1.64
  10  0.766  0.543  0.215-  95 1.63  88 1.63
  11  0.861  0.425  0.463-  94 1.63  89 1.64
  12  0.465  0.235  0.183-  90 1.63  93 1.64
  13  0.227  0.774  0.779- 104 1.61  97 1.64
  14  0.425  0.570  0.527-  98 1.66 103 1.67 112 2.55
  15  0.229  0.451  0.773- 107 1.62  99 1.62
  16  0.430  0.851  0.531- 100 1.62 110 1.79 112 2.28
  17  0.530  0.756  0.805- 101 1.63 106 1.64
  18  0.123  0.558  0.531- 105 1.65 102 1.68 112 2.46
  19  0.978  0.319  0.162-  75 1.61  91 1.63
  20  0.015  0.668  0.837- 104 1.63  76 1.63
  21  0.678  0.675  0.175-  95 1.61  77 1.63
  22  0.309  0.316  0.819- 107 1.62  78 1.63
  23  0.318  0.015  0.177-  79 1.61  93 1.63
  24  0.660  0.980  0.829- 106 1.62  80 1.63
  25  0.323  0.987  0.837-  81 1.61  97 1.63
  26  0.673  0.998  0.164-  82 1.60 109 1.74 111 2.56
  27  0.666  0.670  0.819- 101 1.61 108 1.77 113 2.32
  28  0.330  0.321  0.159-  83 1.62  90 1.62
  29  0.015  0.336  0.831-  99 1.61  84 1.62
  30  0.985  0.666  0.170-  85 1.62  88 1.62
  31  0.647  0.639  0.506- 103 1.61  86 1.62
  32  0.342  0.993  0.475-  87 1.59 110 1.71
  33  0.993  0.337  0.496- 105 1.61  89 1.63
  34  0.340  0.353  0.480-  98 1.61  92 1.63
  35  0.986  0.643  0.503- 102 1.62  94 1.62
  36  0.650  0.008  0.516- 100 1.61  96 1.64
  37  0.116  0.242  0.130-  83 1.61  75 1.62
  38  0.883  0.749  0.862-  76 1.62 108 1.77 113 2.32
  39  0.767  0.881  0.112-  82 1.60  77 1.61
  40  0.227  0.108  0.871-  78 1.61  81 1.61
  41  0.111  0.881  0.131-  79 1.61  85 1.61
  42  0.872  0.124  0.862-  84 1.61  80 1.62
  43  0.777  0.563  0.452-  86 1.61  94 1.61
  44  0.534  0.084  0.175-  93 1.62 109 1.79 111 2.30
  45  0.413  0.208  0.466-  92 1.60  87 1.64
  46  0.891  0.447  0.192-  88 1.61  91 1.63
  47  0.782  0.206  0.452-  89 1.60  96 1.63
  48  0.547  0.455  0.189-  90 1.62  95 1.62
  49  0.444  0.892  0.807- 106 1.62  97 1.64
  50  0.209  0.427  0.539-  98 1.62 105 1.62
  51  0.116  0.554  0.801-  99 1.61 104 1.62
  52  0.581  0.788  0.523- 103 1.61 100 1.64
  53  0.447  0.534  0.800- 107 1.62 101 1.63
  54  0.203  0.774  0.540- 102 1.58 110 1.73 112 2.76
  55  0.998  0.261  0.996-  84 1.62  75 1.63
  56  0.997  0.730  0.002-  76 1.62  85 1.63
  57  0.727  0.712  0.001-  77 1.60 108 1.72
  58  0.254  0.266  0.992-  78 1.63  83 1.63
  59  0.264  0.997  0.003-  81 1.63  79 1.64
  60  0.642  0.584  0.334-  86 1.62  95 1.63
  61  0.628  0.047  0.343-  96 1.60 109 1.72
  62  0.440  0.107  0.325-  93 1.61  87 1.63
  63  0.931  0.583  0.333-  94 1.62  88 1.63
  64  0.935  0.348  0.329-  89 1.62  91 1.64
  65  0.412  0.327  0.322-  92 1.62  90 1.63
  66  0.353  0.946  0.666-  97 1.59 110 1.74
  67  0.349  0.407  0.655-  98 1.63 107 1.64
  68  0.058  0.406  0.664- 105 1.62  99 1.63
  69  0.575  0.898  0.668- 106 1.61 100 1.62
  70  0.569  0.659  0.663- 103 1.61 101 1.62
  71  0.055  0.642  0.668- 104 1.63 102 1.63
  72  0.729  0.011  0.996-  80 1.66  82 1.67 111 2.47
  73  0.762  0.472  0.693-  74 1.25 113 2.18
  74  0.799  0.544  0.631-  73 1.25 113 2.75
  75  0.996  0.230  0.102-  19 1.61  37 1.62   1 1.63  55 1.63  91 3.08  83 3.10  84 3.13  82 3.14

  76  0.001  0.762  0.896-  38 1.62  56 1.62   2 1.62  20 1.63 104 3.05  85 3.11 108 3.22 113 3.28

  77  0.765  0.763  0.101-  57 1.60  39 1.61  21 1.63   3 1.63  95 3.01 108 3.05  85 3.13
  78  0.220  0.221  0.889-  40 1.61  58 1.63  22 1.63   4 1.63 107 3.07  83 3.11  84 3.12
  79  0.221  1.000  0.106-  41 1.61  23 1.61   5 1.63  59 1.64  93 3.05  81 3.09  85 3.14
  80  0.767  0.002  0.891-   6 1.59  42 1.62  24 1.63  72 1.66 106 3.07  84 3.09  82 3.10 108 3.21

  81  0.229  0.995  0.897-  25 1.61  40 1.61   2 1.63  59 1.63  97 3.06  79 3.09
  82  0.768  0.998  0.101-  26 1.60  39 1.60   1 1.63  72 1.67  80 3.10 109 3.13  75 3.14 111 3.17

  83  0.224  0.232  0.099-  37 1.61  28 1.62   5 1.63  58 1.63  90 3.07  75 3.10  78 3.11
  84  0.995  0.227  0.890-  42 1.61  55 1.62  29 1.62   4 1.63  99 3.07  80 3.09  78 3.12  75 3.13

  85  0.995  0.767  0.106-   3 1.61  41 1.61  30 1.62  56 1.63  88 3.04  76 3.11  77 3.13  79 3.14

  86  0.656  0.552  0.436-  43 1.61  60 1.62   7 1.62  31 1.62 103 3.07  92 3.08  95 3.08
  87  0.439  0.109  0.435-  32 1.59  62 1.63  45 1.64   9 1.64  96 3.02  92 3.04 110 3.07
  88  0.892  0.559  0.227-  46 1.61  30 1.62  63 1.63  10 1.63  85 3.04  91 3.08  94 3.09
  89  0.890  0.328  0.433-  47 1.60  64 1.62  33 1.63  11 1.64 105 3.03  91 3.07  94 3.09
  90  0.439  0.334  0.214-  48 1.62  28 1.62  65 1.63  12 1.63  93 3.06  83 3.07  95 3.09
  91  0.888  0.332  0.225-   8 1.59  19 1.63  46 1.63  64 1.64  89 3.07  75 3.08  88 3.08 109 3.25

  92  0.431  0.327  0.431-  45 1.60  65 1.62   7 1.63  34 1.63  87 3.04  98 3.07  86 3.08
  93  0.440  0.111  0.216-  62 1.61  44 1.62  23 1.63  12 1.64  79 3.05  90 3.06 109 3.07
  94  0.889  0.552  0.436-  43 1.61  63 1.62  35 1.62  11 1.63 102 3.04  89 3.09  88 3.09
  95  0.660  0.564  0.228-  21 1.61  48 1.62  60 1.63  10 1.63  77 3.01  86 3.08  90 3.09
  96  0.655  0.100  0.442-  61 1.60  47 1.63  36 1.64   9 1.64  87 3.02 100 3.04 109 3.11
  97  0.337  0.901  0.768-  66 1.59  25 1.63  49 1.64  13 1.64  81 3.06 106 3.09 110 3.14
  98  0.331  0.437  0.552-  34 1.61  50 1.62  67 1.63  14 1.66  92 3.07 107 3.11 103 3.11
  99  0.105  0.436  0.767-  29 1.61  51 1.61  15 1.62  68 1.63  84 3.07 104 3.08 105 3.09
 100  0.559  0.888  0.559-  36 1.61  69 1.62  16 1.62  52 1.64  96 3.04 103 3.04 110 3.18 112 3.35

 101  0.553  0.656  0.772-  27 1.61  70 1.62  53 1.63  17 1.63 107 3.08 106 3.09 108 3.13
 102  0.092  0.659  0.561-  54 1.58  35 1.62  71 1.63  18 1.68  94 3.04 104 3.09 105 3.14 112 3.25

 103  0.557  0.665  0.555-  70 1.61  31 1.61  52 1.61  14 1.67 100 3.04  86 3.07  98 3.11
 104  0.106  0.662  0.770-  13 1.61  51 1.62  20 1.63  71 1.63  76 3.05  99 3.08 102 3.09
 105  0.093  0.430  0.558-  33 1.61  68 1.62  50 1.62  18 1.65  89 3.03  99 3.09 102 3.14
 106  0.552  0.881  0.776-  69 1.61  49 1.62  24 1.62  17 1.64  80 3.07  97 3.09 101 3.09
 107  0.333  0.426  0.762-  22 1.62  15 1.62  53 1.62  67 1.64  78 3.07 101 3.08  98 3.11
 108  0.769  0.768  0.894-   6 1.72  57 1.72  38 1.77  27 1.77 113 2.96  77 3.05 101 3.13  80 3.21
                            76 3.22
 109  0.653  0.091  0.232-  61 1.72   8 1.73  26 1.74  44 1.79  93 3.07 111 3.10  96 3.11  82 3.13
                            91 3.25
 110  0.331  0.898  0.555-  32 1.71  54 1.73  66 1.74  16 1.79  87 3.07  97 3.14 100 3.18 112 3.22

 111  0.559  0.021  0.037-  44 2.30  72 2.47  26 2.56 109 3.10  82 3.17
 112  0.319  0.671  0.479-  16 2.28  18 2.46  14 2.55  54 2.76 110 3.22 102 3.25 100 3.35
 113  0.760  0.568  0.810-  73 2.18  38 2.32  27 2.32  74 2.75 108 2.96  76 3.28
 
  LATTYP: Found a hexagonal cell.
 ALAT       =    13.6750001907
 C/A-ratio  =     1.0798537472
  
  Lattice vectors:
  
 A1 = (  13.6750001907,   0.0000000000,   0.0000000000)
 A2 = (  -6.8375000954,  11.8428975619,   0.0000000000)
 A3 = (   0.0000000000,   0.0000000000,  14.7670001984)


Analysis of symmetry for initial positions (statically):
=====================================================================
 Subroutine PRICEL returns:
 Original cell was already a primitive cell.
 

 Routine SETGRP: Setting up the symmetry group for a 
 hexagonal supercell.


 Subroutine GETGRP returns: Found  1 space group operations
 (whereof  1 operations were pure point group operations)
 out of a pool of 24 trial point group operations.


The static configuration has the point symmetry C_1 .


Analysis of symmetry for dynamics (positions and initial velocities):
=====================================================================
 Subroutine PRICEL returns:
 Original cell was already a primitive cell.
 

 Routine SETGRP: Setting up the symmetry group for a 
 hexagonal supercell.


 Subroutine GETGRP returns: Found  1 space group operations
 (whereof  1 operations were pure point group operations)
 out of a pool of 24 trial point group operations.


The dynamic configuration has the point symmetry C_1 .


Analysis of structural, dynamic, and magnetic symmetry:
=====================================================================
 Subroutine PRICEL returns:
 Original cell was already a primitive cell.
 

 Routine SETGRP: Setting up the symmetry group for a 
 hexagonal supercell.


 Subroutine GETGRP returns: Found  1 space group operations
 (whereof  1 operations were pure point group operations)
 out of a pool of 24 trial point group operations.


The magnetic configuration has the point symmetry C_1 .


 Subroutine INISYM returns: Found  1 space group operations
 (whereof  1 operations are pure point group operations),
 and found     1 'primitive' translations

 
 
 KPOINTS: Gamma points only                       
  k-points in reciprocal lattice
Space group operators:
 irot       det(A)        alpha          n_x          n_y          n_z        tau_x        tau_y        tau_z
    1     1.000000     0.000000     1.000000     0.000000     0.000000     0.000000     0.000000     0.000000

 ----------------------------------------------------------------------------- 
|                                                                             |
|           W    W    AA    RRRRR   N    N  II  N    N   GGGG   !!!           |
|           W    W   A  A   R    R  NN   N  II  NN   N  G    G  !!!           |
|           W    W  A    A  R    R  N N  N  II  N N  N  G       !!!           |
|           W WW W  AAAAAA  RRRRR   N  N N  II  N  N N  G  GGG   !            |
|           WW  WW  A    A  R   R   N   NN  II  N   NN  G    G                |
|           W    W  A    A  R    R  N    N  II  N    N   GGGG   !!!           |
|                                                                             |
|      Your generating k-point grid is not commensurate to the symmetry       |
|      of the lattice.  This can cause   slow convergence with respect        |
|      to k-points for HF type calculations                                   |
|      suggested SOLUTIONS:                                                   |
|       ) if not already the case, use automatic k-point generation           |
|       ) shift your grid to Gamma (G) (e.g. required for hex or fcc lattice) |
|                                                                             |
 ----------------------------------------------------------------------------- 

 
 Subroutine IBZKPT_HF returns following result:
 ==============================================
 
 Found      1 k-points in 1st BZ
 the following      1 k-points will be used (e.g. in the exchange kernel)
 Following reciprocal coordinates:   # in IRBZ
  0.000000  0.000000  0.000000    1.00000000   1 t-inv F


--------------------------------------------------------------------------------------------------------




 Dimension of arrays:
   k-points           NKPTS =      1   k-points in BZ     NKDIM =      1   number of bands    NBANDS=    428
   number of dos      NEDOS =    301   number of ions     NIONS =    113
   non local maximal  LDIM  =      6   non local SUM 2l+1 LMDIM =     18
   total plane-waves  NPLWV = 777600
   max r-space proj   IRMAX =   4725   max aug-charges    IRDMAX= 128081
   dimension x,y,z NGX =    90 NGY =   90 NGZ =   96
   dimension x,y,z NGXF=   180 NGYF=  180 NGZF=  192
   support grid    NGXF=   360 NGYF=  360 NGZF=  384
   ions per type =              74  33   3   3
   NGX,Y,Z   is equivalent  to a cutoff of  10.94, 10.94, 10.81 a.u.
   NGXF,Y,Z  is equivalent  to a cutoff of  21.88, 21.88, 21.62 a.u.

 SYSTEM =  SiO2                                    
 POSCAR =  O  C                                    

 Startparameter for this run:
   NWRITE =      2    write-flag & timer
   PREC   = acc       normal or accurate (medium, high low for compatibility)
   ISTART =      0    job   : 0-new  1-cont  2-samecut
   ICHARG =      2    charge: 1-file 2-atom 10-const
   ISPIN  =      2    spin polarized calculation?
   LNONCOLLINEAR =      F non collinear calculations
   LSORBIT =      F    spin-orbit coupling
   INIWAV =      1    electr: 0-lowe 1-rand  2-diag
   LASPH  =      F    aspherical Exc in radial PAW
   METAGGA=      F    non-selfconsistent MetaGGA calc.

 Electronic Relaxation 1
   ENCUT  =  400.0 eV  29.40 Ry    5.42 a.u.  22.30 22.30 24.08*2*pi/ulx,y,z
   ENINI  =  400.0     initial cutoff
   ENAUG  =  605.4 eV  augmentation charge cutoff
   NELM   =    100;   NELMIN=  2; NELMDL= -5     # of ELM steps 
   EDIFF  = 0.1E-04   stopping-criterion for ELM
   LREAL  =      T    real-space projection
   NLSPLINE    = F    spline interpolate recip. space projectors
   LCOMPAT=      F    compatible to vasp.4.4
   GGA_COMPAT  = T    GGA compatible to vasp.4.4-vasp.4.6
   LMAXPAW     = -100 max onsite density
   LMAXMIX     =    2 max onsite mixed and CHGCAR
   VOSKOWN=      0    Vosko Wilk Nusair interpolation
   ROPT   =   -0.00025  -0.00025  -0.00025  -0.00025
 Ionic relaxation
   EDIFFG = 0.1E-03   stopping-criterion for IOM
   NSW    =      0    number of steps for IOM
   NBLOCK =      1;   KBLOCK =      1    inner block; outer block 
   IBRION =     -1    ionic relax: 0-MD 1-quasi-New 2-CG
   NFREE  =      0    steps in history (QN), initial steepest desc. (CG)
   ISIF   =      0    stress and relaxation
   IWAVPR =     10    prediction:  0-non 1-charg 2-wave 3-comb
   ISYM   =      3    0-nonsym 1-usesym 2-fastsym
   LCORR  =      T    Harris-Foulkes like correction to forces

   POTIM  = 0.5000    time-step for ionic-motion
   TEIN   =    0.0    initial temperature
   TEBEG  =    0.0;   TEEND  =   0.0 temperature during run
   SMASS  =  -3.00    Nose mass-parameter (am)
   estimated Nose-frequenzy (Omega)   =  0.10E-29 period in steps =****** mass=  -0.427E-26a.u.
   SCALEE = 1.0000    scale energy and forces
   NPACO  =    256;   APACO  = 16.0  distance and # of slots for P.C.
   PSTRESS=    0.0 pullay stress

  Mass of Ions in am
   POMASS =  16.00 28.09 26.98107.87
  Ionic Valenz
   ZVAL   =   6.00  4.00  3.00 11.00
  Atomic Wigner-Seitz radii
   RWIGS  =  -1.00 -1.00 -1.00 -1.00
  virtual crystal weights 
   VCA    =   1.00  1.00  1.00  1.00
   NELECT =     618.0000    total number of electrons
   NUPDOWN=      -1.0000    fix difference up-down

 DOS related values:
   EMIN   =  10.00;   EMAX   =-10.00  energy-range for DOS
   EFERMI =   0.00
   ISMEAR =     0;   SIGMA  =   0.05  broadening in eV -4-tet -1-fermi 0-gaus

 Electronic relaxation 2 (details)
   IALGO  =     38    algorithm
   LDIAG  =      T    sub-space diagonalisation (order eigenvalues)
   LSUBROT=      F    optimize rotation matrix (better conditioning)
   TURBO    =      0    0=normal 1=particle mesh
   IRESTART =      0    0=no restart 2=restart with 2 vectors
   NREBOOT  =      0    no. of reboots
   NMIN     =      0    reboot dimension
   EREF     =   0.00    reference energy to select bands
   IMIX   =      1    mixing-type and parameters
     AMIX     =   0.40;   BMIX     =  1.00
     AMIX_MAG =   1.60;   BMIX_MAG =  1.00
     AMIN     =   0.10
     WC   =   100.;   INIMIX=   1;  MIXPRE=   1;  MAXMIX= -45

 Intra band minimization:
   WEIMIN = 0.0000     energy-eigenvalue tresh-hold
   EBREAK =  0.58E-08  absolut break condition
   DEPER  =   0.30     relativ break condition  

   TIME   =   0.40     timestep for ELM

  volume/ion in A,a.u.               =      21.16       142.82
  Fermi-wavevector in a.u.,A,eV,Ry     =   1.042746  1.970504 14.793871  1.087319
  Thomas-Fermi vector in A             =   2.177425
 
 Write flags
   LWAVE        =      F    write WAVECAR
   LDOWNSAMPLE  =      F    k-point downsampling of WAVECAR
   LCHARG       =      F    write CHGCAR
   LVTOT        =      F    write LOCPOT, total local potential
   LVHAR        =      F    write LOCPOT, Hartree potential only
   LELF         =      F    write electronic localiz. function (ELF)
   LORBIT       =     11    0 simple, 1 ext, 2 COOP (PROOUT), +10 PAW based schemes


 Dipole corrections
   LMONO  =      F    monopole corrections only (constant potential shift)
   LDIPOL =      F    correct potential (dipole corrections)
   IDIPOL =      0    1-x, 2-y, 3-z, 4-all directions 
   EPSILON=  1.0000000 bulk dielectric constant

 Exchange correlation treatment:
   GGA     =    PE    GGA type
   LEXCH   =     8    internal setting for exchange type
   VOSKOWN=      0    Vosko Wilk Nusair interpolation
   EXXOEP  =     0    0=HF, 1=EXX-LHF (local Hartree Fock) 2=EXX OEP
   LHFCALC =     T    Hartree Fock is set to
   LSYMGRAD=     F    symmetrize gradient (conserves proper symmetry)
   PRECFOCK=normal    Normal, Fast or Accurate (Low or Medium for compatibility)
   LRHFCALC=     F    long range Hartree Fock
   LRSCOR  =     F    long range correlation only (use DFT for short range part)
   LTHOMAS =     F    Thomas Fermi screening in HF
   LMODELHF=     F    short range full HF, long range fraction AEXX
   ENCUT4O =  -1.0   cutoff for four orbital integrals eV
   LMAXFOCK=     4    L truncation for augmentation on plane wave grid
   LMAXFOCKAE=  -1    L truncation for all-electron charge restoration on plane wave grid
   NMAXFOCKAE=   1    number of basis functions for all-electron charge restoration
   LFOCKAEDFT=     F  apply the AE augmentation even for DFT
   NKREDX  =     1    reduce k-point grid by
   NKREDY  =     1    reduce k-point grid by
   NKREDZ  =     1    reduce k-point grid by
   SHIFTRED=     F    shift reduced grid of Gamma
   HFKIDENT=     F    idential grid for each k-point
   ODDONLY =     F    use only odd q-grid points
   EVENONLY=     F    use only even q-grid points
   HFALPHA =   -1.0000 decay constant for conv. correction
   MCALPHA =    0.0000 extent of test-charge in conv. correction in multipole expansion
   AEXX    =    0.2500 exact exchange contribution
   HFSCREEN=    0.2000 screening length (either q_TF or 0.3 A-1)
   HFSCREENC=   0.2000 screening length for correlation (either q_TF or 0.3 A-1)
   HFRCUT  =    0.0000 spherical cutoff for potential kernel
   ALDAX   =    0.7500 LDA exchange part
   AGGAX   =    0.7500 GGA exchange part
   ALDAC   =    1.0000 LDA correlation
   AGGAC   =    1.0000 GGA correlation
   ENCUTFOCK=  -1.0 apply spherical cutoff to Coloumb kernel
   NBANDSGWLOW=     1    first orbital included in HF term
   NBLOCK_FOCK=    64    blocking factor in FOCK_ACC
 Linear response parameters
   LEPSILON=     F    determine dielectric tensor
   LRPA    =     F    only Hartree local field effects (RPA)
   LNABLA  =     F    use nabla operator in PAW spheres
   LVEL    =     F    velocity operator in full k-point grid
   LINTERFAST=   F  fast interpolation
   KINTER  =     0    interpolate to denser k-point grid
   CSHIFT  =0.1000    complex shift for real part using Kramers Kronig
   OMEGAMAX=  -1.0    maximum frequency
   DEG_THRESHOLD= 0.2000000E-02 threshold for treating states as degnerate
   RTIME   =   -0.100 relaxation time in fs
  (WPLASMAI=    0.000 imaginary part of plasma frequency in eV, 0.658/RTIME)
   DFIELD  = 0.0000000 0.0000000 0.0000000 field for delta impulse in time
 
 Orbital magnetization related:
   ORBITALMAG=     F  switch on orbital magnetization
   LCHIMAG   =     F  perturbation theory with respect to B field
   DQ        =  0.001000  dq finite difference perturbation B field
   LLRAUG    =     F  two centre corrections for induced B field



--------------------------------------------------------------------------------------------------------


 Static calculation
 charge density and potential will be updated during run
 spin polarized calculation
 Variant of blocked Davidson
 Davidson routine will perform the subspace rotation
 perform sub-space diagonalisation
    after iterative eigenvector-optimisation
 Kerker-like  mixing scheme
 using additional bands          119
 real space projection scheme for non local part
 use partial core corrections
 calculate Harris-corrections to forces 
   (improved forces if not selfconsistent)
 use gradient corrections 
 use of overlap-Matrix (Vanderbilt PP)
 Gauss-broadening in eV      SIGMA  =   0.05


--------------------------------------------------------------------------------------------------------


  energy-cutoff  :      400.00
  volume of cell :     2391.54
      direct lattice vectors                 reciprocal lattice vectors
    13.675000191  0.000000000  0.000000000     0.073126142  0.042219398  0.000000000
    -6.837500095 11.842897562  0.000000000     0.000000000  0.084438795  0.000000000
     0.000000000  0.000000000 14.767000198     0.000000000  0.000000000  0.067718561

  length of vectors
    13.675000191 13.675000191 14.767000198     0.084438795  0.084438795  0.067718561


 
 k-points in units of 2pi/SCALE and weight: Gamma points only                       
   0.00000000  0.00000000  0.00000000       1.000
 
 k-points in reciprocal lattice and weights: Gamma points only                       
   0.00000000  0.00000000  0.00000000       1.000
 
 position of ions in fractional coordinates (direct lattice) 
   0.89584582  0.10021015  0.11949381
   0.10373133  0.88883335  0.87675939
   0.89232600  0.78957517  0.12529233
   0.09174025  0.19482291  0.86721328
   0.19357937  0.10216372  0.11515249
   0.79965392  0.90571111  0.88098472
   0.55777523  0.42430566  0.45959565
   0.76271914  0.22768634  0.21722943
   0.56515452  0.14097547  0.47109645
   0.76636226  0.54331708  0.21535661
   0.86084675  0.42533693  0.46261777
   0.46495093  0.23537251  0.18263003
   0.22709637  0.77430645  0.77881794
   0.42486716  0.57034991  0.52696047
   0.22941644  0.45064053  0.77286610
   0.42957570  0.85080283  0.53089374
   0.52977434  0.75626438  0.80533671
   0.12257273  0.55848299  0.53110770
   0.97827491  0.31874631  0.16152761
   0.01453969  0.66797853  0.83720803
   0.67775963  0.67518196  0.17515937
   0.30919926  0.31579171  0.81901407
   0.31757077  0.01494207  0.17707933
   0.65952177  0.98028376  0.82916651
   0.32331682  0.98663134  0.83732950
   0.67338830  0.99773619  0.16428368
   0.66577803  0.66971344  0.81929520
   0.33040718  0.32084369  0.15902172
   0.01514785  0.33604005  0.83122491
   0.98545998  0.66586580  0.16977192
   0.64655769  0.63871356  0.50605327
   0.34186220  0.99254306  0.47461797
   0.99306914  0.33732792  0.49619406
   0.33962878  0.35269250  0.48041297
   0.98553759  0.64312421  0.50280117
   0.64996077  0.00782757  0.51596958
   0.11575663  0.24194189  0.13017499
   0.88267529  0.74931352  0.86197424
   0.76698787  0.88123348  0.11161618
   0.22683171  0.10838609  0.87143819
   0.11087372  0.88134047  0.13070510
   0.87222287  0.12418719  0.86159155
   0.77734947  0.56257816  0.45154737
   0.53423579  0.08423842  0.17493467
   0.41315991  0.20847989  0.46646864
   0.89131673  0.44721428  0.19161077
   0.78227419  0.20636614  0.45156689
   0.54725852  0.45520801  0.18908978
   0.44411519  0.89208042  0.80688275
   0.20852268  0.42686902  0.53860414
   0.11576063  0.55360627  0.80078218
   0.58104698  0.78790784  0.52254444
   0.44676864  0.53369171  0.80049206
   0.20278246  0.77445924  0.54025385
   0.99792455  0.26052166  0.99554896
   0.99733974  0.72998185  0.00184200
   0.72708954  0.71212882  0.00111492
   0.25388242  0.26561641  0.99220173
   0.26399291  0.99713108  0.00339018
   0.64247715  0.58444389  0.33386445
   0.62844281  0.04651380  0.34257286
   0.43971511  0.10747944  0.32452481
   0.93131147  0.58326734  0.33263891
   0.93512463  0.34791471  0.32922605
   0.41193308  0.32734896  0.32211143
   0.35342344  0.94566452  0.66638120
   0.34929471  0.40743214  0.65450598
   0.05755547  0.40580332  0.66380240
   0.57508864  0.89776263  0.66829694
   0.56938343  0.65937195  0.66327311
   0.05509359  0.64155452  0.66768272
   0.72880426  0.01080592  0.99582695
   0.76192824  0.47192110  0.69279356
   0.79869907  0.54447205  0.63093133
   0.99554730  0.22966422  0.10223070
   0.00084904  0.76186955  0.89575293
   0.76496174  0.76307437  0.10072293
   0.21955032  0.22096347  0.88856024
   0.22115112  0.99988468  0.10636809
   0.76726795  0.00215204  0.89070800
   0.22901167  0.99478286  0.89743713
   0.76781560  0.99789689  0.10053875
   0.22361828  0.23202923  0.09884689
   0.99463932  0.22739286  0.88999013
   0.99541696  0.76685706  0.10639936
   0.65621318  0.55206865  0.43648139
   0.43889236  0.10885430  0.43483421
   0.89198514  0.55898689  0.22713803
   0.89043973  0.32758175  0.43294339
   0.43899891  0.33419970  0.21427673
   0.88779497  0.33167252  0.22493336
   0.43086847  0.32691062  0.43051999
   0.43975918  0.11057292  0.21580756
   0.88853978  0.55222604  0.43623022
   0.65996962  0.56432201  0.22783576
   0.65478510  0.09952699  0.44220501
   0.33678577  0.90109538  0.76792814
   0.33075943  0.43700096  0.55156096
   0.10461993  0.43611578  0.76723041
   0.55851707  0.88846927  0.55911277
   0.55284622  0.65575464  0.77240745
   0.09234850  0.65852135  0.56132927
   0.55707288  0.66517834  0.55524341
   0.10568970  0.66190803  0.77017584
   0.09318219  0.42967428  0.55821672
   0.55172356  0.88121576  0.77575396
   0.33296832  0.42625618  0.76170051
   0.76900431  0.76848208  0.89426278
   0.65322336  0.09092455  0.23153041
   0.33108043  0.89766730  0.55527044
   0.55904797  0.02105693  0.03708548
   0.31896501  0.67099655  0.47890745
   0.76000691  0.56820420  0.80983658
 
 position of ions in cartesian coordinates  (Angst):
  11.56550484  1.18677848  1.76456517
  -4.65887213 10.52636233 12.94710601
   6.80383793  9.35085781  1.85019192
  -0.07755371  2.30726775 12.80613869
   1.94865351  1.20991451  1.70045682
   4.74246768 10.72624393 13.00950155
   4.72638641  5.02500847  6.78684905
   8.87337907  2.69646598  3.20782701
   6.76456842  1.66955801  6.95668141
   6.76507347  6.43444847  3.18017111
   8.86383817  5.03722174  6.83147677
   4.74884447  2.78749252  2.69689775
  -2.18877753  9.17003193 11.50080470
   1.91029094  6.75459553  7.78162542
   0.05601518  5.33688964 11.41291389
   0.05708341 10.07597076  7.83970802
   2.07370642  8.95636157 11.89240741
  -2.14244535  6.61405684  7.84286756
  11.19848160  3.77487995  2.38527830
  -4.36847303  7.91080131 12.36305120
   4.65180635  7.99611076  2.58657850
   2.06907407  3.73988884 12.09438090
   4.24061400  0.17695739  2.61493057
   2.31627001 11.60940020 12.24430208
  -2.32473432 11.68457392 12.36484492
   2.38656386 11.81608750  2.42597713
   4.52534898  7.93134763 12.09853238
   2.32454945  3.79971900  2.34827378
  -2.09052706  3.97968793 12.27469846
   8.92330798  7.88578047  2.50702203
   4.47447249  7.56421922  7.47288878
  -2.11154759 11.75458573  7.00868362
  11.27374098  3.99494005  7.32729782
   2.23288858  4.17690116  7.09425842
   9.07986493  7.61645413  7.42486497
   8.83469262  0.09270105  7.61932293
  -0.07130571  2.86529301  1.92229403
   6.94715347  8.87404329 12.72877372
   4.46312529 10.43635782  1.64823615
   2.36083378  1.28360536 12.86852793
  -4.50996742 10.43762485  1.93012218
  11.07851800  1.47073611 12.72312259
   6.78362588  6.66255553  6.66800017
   6.72969428  0.99762695  2.58326033
   4.22448059  2.46900596  6.88834243
   9.13092878  5.29631293  2.82951621
   9.28657113  2.44397307  6.66828835
   4.37127563  5.39098181  2.79228887
  -0.02632464 10.56481707 11.91523776
  -0.06716933  5.05536610  7.95356745
  -2.20225629  6.55630239 11.82515065
   2.55849757  9.33111186  7.71641392
   2.46044418  6.32045626 11.82086636
  -2.52231499  9.17184149  7.97792874
  11.86530161  3.08533131 14.70127169
   8.64737011  8.64510032  0.02720079
   5.07376870  8.43366866  0.01646406
   1.65568992  3.14566793 14.65184310
  -3.20778083 11.80892126  0.05006278
   4.78974006  6.92150907  4.93017640
   8.27591743  0.55085820  5.05877350
   5.27821361  1.27286796  4.79225799
   8.74759399  6.90757535  4.91207887
  10.40896266  4.12031822  4.86168116
   3.39493642  3.87676019  4.75661950
  -1.63291558 11.19940800  9.84045129
   1.99078792  4.82517710  9.66508998
  -1.98760913  4.80588715  9.80237010
   1.72588515 10.63211086  9.86874100
   3.27786279  7.80887444  9.79455421
  -3.63322426  7.59786444  9.85967082
   9.89251292  0.12797345 14.70537679
   7.19260823  5.58891319 10.23048262
   7.19938222  6.44812666  9.31696313
  12.04378041  2.71988981  1.50964080
  -5.19767254  9.02274307 13.22758365
   5.24333083  9.03701166  1.48737551
   1.49151288  2.61684776 13.12136918
  -3.81247006 11.84153189  1.57073766
  10.47767481  0.02548641 13.15308517
  -3.67009326 11.78111150 13.25245423
   3.67675846 11.81799063  1.48465567
   1.47148020  2.74789839  1.45967212
  12.04689427  2.69299031 13.14248441
   8.36894199  9.08180957  1.57119930
   5.19894588  6.53809250  6.44552071
   5.25756182  1.28915038  6.42119687
   8.37582413  6.62002445  3.35414739
   9.93692327  3.87951712  6.39327518
   3.71821969  3.95789278  3.16422454
   9.87278550  3.92796362  3.32159103
   3.65687500  3.87156895  6.35748882
   5.25766446  1.30950378  3.18683021
   8.37493607  6.53995639  6.44181180
   5.16653295  6.68320772  3.36445076
   8.27367059  1.17868792  6.53004146
  -1.55569432 10.67158026 11.33999506
   1.53514116  5.17535760  8.14490085
  -1.55126418  5.16487454 11.32969160
   1.56281237 10.52205054  8.25641839
   3.07644969  7.76603506 11.40614102
  -3.23977402  7.79880087  8.28914943
   3.06981479  7.87763895  8.19927951
  -3.08048948  7.83890895 11.37318682
  -1.66363148  5.08858849  8.24318642
   1.51950691 10.43614798 11.45555889
   1.63881512  5.04810831 11.24803157
   5.26163774  9.10105454 13.20557863
   8.31113298  1.07681016  3.41900967
  -1.61027525 10.63098190  8.19967877
   7.50100438  0.24937504  0.54764128
  -0.22609249  7.94654344  7.07202645
   6.50799843  6.72918413 11.95885701
 


--------------------------------------------------------------------------------------------------------


 k-point  1 :   0.0000 0.0000 0.0000  plane waves:   43405

 maximum and minimum number of plane-waves per node :     10852    10850

 maximum number of plane-waves:     43405
 maximum index in each direction: 
   IXMAX=   22   IYMAX=   22   IZMAX=   24
   IXMIN=  -22   IYMIN=  -22   IZMIN=  -24


 real space projection operators:
  total allocation   :      30559.39 KBytes
  max/ min on nodes  :       7800.48       7478.78


 parallel 3D FFT for wavefunctions:
    minimum data exchange during FFTs selected (reduces bandwidth)
 parallel 3D FFT for charge:
    minimum data exchange during FFTs selected (reduces bandwidth)


 FFT grid for exact exchange (Hartree Fock) 
  NGX = 70; NGY = 70; NGZ = 80

 
 Radii for the augmentation spheres in the non-local exchange
 for species   1 augmentation radius   0.820 (default was   0.722)
       energy cutoff for augmentation   1600.0
 for species   2 augmentation radius   1.055 (default was   0.989)
       energy cutoff for augmentation   1600.0
 for species   3 augmentation radius   1.041 (default was   1.041)
       energy cutoff for augmentation   1600.0
 for species   4 augmentation radius   1.279 (default was   1.125)
       energy cutoff for augmentation   1600.0

 real space projection operators:
  total allocation   :       4840.41 KBytes
  max/ min on nodes  :       1236.41       1183.28

 Maximum index for augmentation-charges in exchange          371
  SETUP_FOCK is finished

 total amount of memory used by VASP MPI-rank0   218134. kBytes
=======================================================================

   base      :      30000. kBytes
   nonlr-proj:      23010. kBytes
   fftplans  :      69849. kBytes
   grid      :      56122. kBytes
   one-center:        902. kBytes
   HF        :        259. kBytes
   wavefun   :      37992. kBytes
 
     INWAV:  cpu time    0.0000: real time    0.0020
 initial charge density was supplied:
 charge density of overlapping atoms calculated
 number of electron     618.0000000 magnetization     113.0000000
 keeping initial charge density in first step


--------------------------------------------------------------------------------------------------------


 Maximum index for non-local projection operator         1303
 Maximum index for augmentation-charges         7882 (set IRDMAX)


--------------------------------------------------------------------------------------------------------


 First call to EWALD:  gamma=   0.133
 Maximum number of real-space cells 3x 3x 3
 Maximum number of reciprocal cells 3x 3x 3

    FEWALD:  cpu time    0.0066: real time    0.0066


--------------------------------------- Iteration      1(   1)  ---------------------------------------


    POTLOK:  cpu time    1.6904: real time    1.7120
    SETDIJ:  cpu time    0.6974: real time    0.6991
     EDDAV:  cpu time   15.3318: real time   15.4080
       DOS:  cpu time    0.0007: real time    0.0007
    --------------------------------------------
      LOOP:  cpu time   17.7203: real time   17.8198

 eigenvalue-minimisations  :  1736
 total energy-change (2. order) : 0.5415678E+04  (-0.2471650E+05)
 number of electron     618.0000000 magnetization     113.0000000
 augmentation part      618.0000000 magnetization     113.0000000

 Free energy of the ion-electron system (eV)
  ---------------------------------------------------
  alpha Z        PSCENC =       638.83506748
  Ewald energy   TEWEN  =     -6204.16234405
  -Hartree energ DENC   =    -29013.27209202
  -exchange      EXHF   =         0.00000000
  -V(xc)+E(xc)   XCENC  =      1267.99543140
  PAW double counting   =     22322.73891937   -21760.10098686
  entropy T*S    EENTRO =        -0.04897775
  eigenvalues    EBANDS =      -117.28305921
  atomic energy  EATOM  =     38280.97629729
  Solvation  Ediel_sol  =         0.00000000
  ---------------------------------------------------
  free energy    TOTEN  =      5415.67825565 eV

  energy without entropy =     5415.72723340  energy(sigma->0) =     5415.70274452
  exchange ACFDT corr.  =         0.00000000  see jH, gK, PRB 81, 115126


--------------------------------------------------------------------------------------------------------




--------------------------------------- Iteration      1(   2)  ---------------------------------------


     EDDAV:  cpu time   17.9070: real time   17.9569
       DOS:  cpu time    0.0006: real time    0.0006
    --------------------------------------------
      LOOP:  cpu time   17.9076: real time   17.9575

 eigenvalue-minimisations  :  2120
 total energy-change (2. order) :-0.4352602E+04  (-0.4089477E+04)
 number of electron     618.0000000 magnetization     113.0000000
 augmentation part      618.0000000 magnetization     113.0000000

 Free energy of the ion-electron system (eV)
  ---------------------------------------------------
  alpha Z        PSCENC =       638.83506748
  Ewald energy   TEWEN  =     -6204.16234405
  -Hartree energ DENC   =    -29013.27209202
  -exchange      EXHF   =         0.00000000
  -V(xc)+E(xc)   XCENC  =      1267.99543140
  PAW double counting   =     22322.73891937   -21760.10098686
  entropy T*S    EENTRO =        -0.02650295
  eigenvalues    EBANDS =     -4469.90765386
  atomic energy  EATOM  =     38280.97629729
  Solvation  Ediel_sol  =         0.00000000
  ---------------------------------------------------
  free energy    TOTEN  =      1063.07613580 eV

  energy without entropy =     1063.10263875  energy(sigma->0) =     1063.08938728
  exchange ACFDT corr.  =         0.00000000  see jH, gK, PRB 81, 115126


--------------------------------------------------------------------------------------------------------




--------------------------------------- Iteration      1(   3)  ---------------------------------------


     EDDAV:  cpu time   17.3243: real time   17.4134
       DOS:  cpu time    0.0005: real time    0.0005
    --------------------------------------------
      LOOP:  cpu time   17.3248: real time   17.4139

 eigenvalue-minimisations  :  2040
 total energy-change (2. order) :-0.5111849E+03  (-0.5064778E+03)
 number of electron     618.0000000 magnetization     113.0000000
 augmentation part      618.0000000 magnetization     113.0000000

 Free energy of the ion-electron system (eV)
  ---------------------------------------------------
  alpha Z        PSCENC =       638.83506748
  Ewald energy   TEWEN  =     -6204.16234405
  -Hartree energ DENC   =    -29013.27209202
  -exchange      EXHF   =         0.00000000
  -V(xc)+E(xc)   XCENC  =      1267.99543140
  PAW double counting   =     22322.73891937   -21760.10098686
  entropy T*S    EENTRO =        -0.00042027
  eigenvalues    EBANDS =     -4981.11859642
  atomic energy  EATOM  =     38280.97629729
  Solvation  Ediel_sol  =         0.00000000
  ---------------------------------------------------
  free energy    TOTEN  =       551.89127592 eV

  energy without entropy =      551.89169619  energy(sigma->0) =      551.89148606
  exchange ACFDT corr.  =         0.00000000  see jH, gK, PRB 81, 115126


--------------------------------------------------------------------------------------------------------




--------------------------------------- Iteration      1(   4)  ---------------------------------------


     EDDAV:  cpu time   17.8279: real time   17.9445
       DOS:  cpu time    0.0005: real time    0.0005
    --------------------------------------------
      LOOP:  cpu time   17.8284: real time   17.9450

 eigenvalue-minimisations  :  2112
 total energy-change (2. order) :-0.1139494E+02  (-0.1134104E+02)
 number of electron     618.0000000 magnetization     113.0000000
 augmentation part      618.0000000 magnetization     113.0000000

 Free energy of the ion-electron system (eV)
  ---------------------------------------------------
  alpha Z        PSCENC =       638.83506748
  Ewald energy   TEWEN  =     -6204.16234405
  -Hartree energ DENC   =    -29013.27209202
  -exchange      EXHF   =         0.00000000
  -V(xc)+E(xc)   XCENC  =      1267.99543140
  PAW double counting   =     22322.73891937   -21760.10098686
  entropy T*S    EENTRO =        -0.00004351
  eigenvalues    EBANDS =     -4992.51390928
  atomic energy  EATOM  =     38280.97629729
  Solvation  Ediel_sol  =         0.00000000
  ---------------------------------------------------
  free energy    TOTEN  =       540.49633982 eV

  energy without entropy =      540.49638333  energy(sigma->0) =      540.49636157
  exchange ACFDT corr.  =         0.00000000  see jH, gK, PRB 81, 115126


--------------------------------------------------------------------------------------------------------




--------------------------------------- Iteration      1(   5)  ---------------------------------------


     EDDAV:  cpu time 2378.4828: real time 2388.7842
       DOS:  cpu time    0.0003: real time    0.0003
    CHARGE:  cpu time    1.3007: real time    1.3039
    MIXING:  cpu time    0.0104: real time    0.0104
    --------------------------------------------
      LOOP:  cpu time 2379.7942: real time 2390.0988

 eigenvalue-minimisations  :  2176
 total energy-change (2. order) :-0.1835617E+04  (-0.4362139E+02)
 number of electron     618.0000002 magnetization     -64.6000000
 augmentation part       70.4146318 magnetization     -65.0948673

 Free energy of the ion-electron system (eV)
  ---------------------------------------------------
  alpha Z        PSCENC =       638.83506748
  Ewald energy   TEWEN  =     -6204.16234405
  -Hartree energ DENC   =    -29013.27209202
  -exchange      EXHF   =      1770.39757307
  -V(xc)+E(xc)   XCENC  =      1267.99543140
  PAW double counting   =     22322.73891937   -21760.10098686
  entropy T*S    EENTRO =        -0.00000000
  eigenvalues    EBANDS =     -8598.52838157
  atomic energy  EATOM  =     38280.97629729
  Solvation  Ediel_sol  =         0.00000000
  ---------------------------------------------------
  free energy    TOTEN  =     -1295.12051589 eV

  energy without entropy =    -1295.12051589  energy(sigma->0) =    -1295.12051589
  exchange ACFDT corr.  =        -0.00021041  see jH, gK, PRB 81, 115126


--------------------------------------------------------------------------------------------------------




--------------------------------------- Iteration      1(   6)  ---------------------------------------


    POTLOK:  cpu time    1.4548: real time    1.4670
    SETDIJ:  cpu time    0.6934: real time    0.6951
     EDDAV:  cpu time 2232.5185: real time 2241.3809
       DOS:  cpu time    0.0003: real time    0.0003
    CHARGE:  cpu time    1.2990: real time    1.3021
    MIXING:  cpu time    0.0067: real time    0.0067
    --------------------------------------------
      LOOP:  cpu time 2235.9727: real time 2244.8521

 eigenvalue-minimisations  :  1972
 total energy-change (2. order) : 0.1849768E+03  (-0.2926555E+02)
 number of electron     618.0000003 magnetization      41.9600000
 augmentation part       64.3534626 magnetization      40.7050965

 Free energy of the ion-electron system (eV)
  ---------------------------------------------------
  alpha Z        PSCENC =       638.83506748
  Ewald energy   TEWEN  =     -6204.16234405
  -Hartree energ DENC   =    -30345.12382604
  -exchange      EXHF   =      1898.88387972
  -V(xc)+E(xc)   XCENC  =      1381.38967773
  PAW double counting   =     26137.58933015   -25593.59966371
  entropy T*S    EENTRO =        -0.00000000
  eigenvalues    EBANDS =     -7304.93209462
  atomic energy  EATOM  =     38280.97629729
  Solvation  Ediel_sol  =         0.00000000
  ---------------------------------------------------
  free energy    TOTEN  =     -1110.14367605 eV

  energy without entropy =    -1110.14367605  energy(sigma->0) =    -1110.14367605
  exchange ACFDT corr.  =         0.00000000  see jH, gK, PRB 81, 115126


--------------------------------------------------------------------------------------------------------




--------------------------------------- Iteration      1(   7)  ---------------------------------------


    POTLOK:  cpu time    1.4916: real time    1.5019
    SETDIJ:  cpu time    0.6929: real time    0.6946
     EDDAV:  cpu time 2137.2689: real time 2145.7369
       DOS:  cpu time    0.0003: real time    0.0003
    CHARGE:  cpu time    1.2968: real time    1.2999
    MIXING:  cpu time    0.0066: real time    0.0066
    --------------------------------------------
      LOOP:  cpu time 2140.7571: real time 2149.2402

 eigenvalue-minimisations  :  1844
 total energy-change (2. order) :-0.3548266E+02  (-0.1463425E+02)
 number of electron     618.0000003 magnetization     -21.9760000
 augmentation part       60.6934386 magnetization     -23.7255372

 Free energy of the ion-electron system (eV)
  ---------------------------------------------------
  alpha Z        PSCENC =       638.83506748
  Ewald energy   TEWEN  =     -6204.16234405
  -Hartree energ DENC   =    -30828.34714678
  -exchange      EXHF   =      1823.53121039
  -V(xc)+E(xc)   XCENC  =      1372.20177931
  PAW double counting   =     27647.46763952   -27106.68892329
  entropy T*S    EENTRO =        -0.00000000
  eigenvalues    EBANDS =     -6769.43991992
  atomic energy  EATOM  =     38280.97629729
  Solvation  Ediel_sol  =         0.00000000
  ---------------------------------------------------
  free energy    TOTEN  =     -1145.62634006 eV

  energy without entropy =    -1145.62634006  energy(sigma->0) =    -1145.62634006
  exchange ACFDT corr.  =         0.00000000  see jH, gK, PRB 81, 115126


--------------------------------------------------------------------------------------------------------




--------------------------------------- Iteration      1(   8)  ---------------------------------------


    POTLOK:  cpu time    1.4951: real time    1.5051
    SETDIJ:  cpu time    0.6917: real time    0.6934
     EDDAV:  cpu time 2109.3475: real time 2118.1505
       DOS:  cpu time    0.0003: real time    0.0003
    CHARGE:  cpu time    1.2910: real time    1.2943
    MIXING:  cpu time    0.0113: real time    0.0114
    --------------------------------------------
      LOOP:  cpu time 2112.8370: real time 2121.6550

 eigenvalue-minimisations  :  1836
 total energy-change (2. order) :-0.1972276E+02  (-0.4573122E+01)
 number of electron     618.0000003 magnetization      16.3856000
 augmentation part       60.2252758 magnetization      14.8850356

 Free energy of the ion-electron system (eV)
  ---------------------------------------------------
  alpha Z        PSCENC =       638.83506748
  Ewald energy   TEWEN  =     -6204.16234405
  -Hartree energ DENC   =    -30874.81183961
  -exchange      EXHF   =      1777.27688977
  -V(xc)+E(xc)   XCENC  =      1359.95320385
  PAW double counting   =     27989.82011437   -27447.31133483
  entropy T*S    EENTRO =        -0.00000000
  eigenvalues    EBANDS =     -6685.92514993
  atomic energy  EATOM  =     38280.97629729
  Solvation  Ediel_sol  =         0.00000000
  ---------------------------------------------------
  free energy    TOTEN  =     -1165.34909567 eV

  energy without entropy =    -1165.34909567  energy(sigma->0) =    -1165.34909567
  exchange ACFDT corr.  =         0.00000000  see jH, gK, PRB 81, 115126


--------------------------------------------------------------------------------------------------------




--------------------------------------- Iteration      1(   9)  ---------------------------------------


    POTLOK:  cpu time    1.5219: real time    1.5668
    SETDIJ:  cpu time    0.6929: real time    0.6945
     EDDAV:  cpu time 2073.3258: real time 2082.5703
       DOS:  cpu time    0.0003: real time    0.0003
    CHARGE:  cpu time    1.2972: real time    1.3003
    MIXING:  cpu time    0.0069: real time    0.0069
    --------------------------------------------
      LOOP:  cpu time 2076.8450: real time 2086.1392

 eigenvalue-minimisations  :  1796
 total energy-change (2. order) :-0.1358654E+02  (-0.1941873E+01)
 number of electron     618.0000003 magnetization      -6.6313600
 augmentation part       60.4400441 magnetization      -8.2246879

 Free energy of the ion-electron system (eV)
  ---------------------------------------------------
  alpha Z        PSCENC =       638.83506748
  Ewald energy   TEWEN  =     -6204.16234405
  -Hartree energ DENC   =    -30874.49128246
  -exchange      EXHF   =      1769.69809663
  -V(xc)+E(xc)   XCENC  =      1347.51085139
  PAW double counting   =     28115.25422789   -27571.53655172
  entropy T*S    EENTRO =        -0.00000000
  eigenvalues    EBANDS =     -6681.01999649
  atomic energy  EATOM  =     38280.97629729
  Solvation  Ediel_sol  =         0.00000000
  ---------------------------------------------------
  free energy    TOTEN  =     -1178.93563403 eV

  energy without entropy =    -1178.93563403  energy(sigma->0) =    -1178.93563403
  exchange ACFDT corr.  =        -0.00000000  see jH, gK, PRB 81, 115126


--------------------------------------------------------------------------------------------------------




--------------------------------------- Iteration      1(  10)  ---------------------------------------


    POTLOK:  cpu time    1.5431: real time    1.5651
    SETDIJ:  cpu time    0.6952: real time    0.6970
     EDDAV:  cpu time 2098.8304: real time 2107.4463
       DOS:  cpu time    0.0003: real time    0.0003
    CHARGE:  cpu time    1.3010: real time    1.3042
    MIXING:  cpu time    0.0066: real time    0.0066
    --------------------------------------------
      LOOP:  cpu time 2102.3767: real time 2111.0194

 eigenvalue-minimisations  :  1828
 total energy-change (2. order) :-0.3752577E+01  (-0.8600443E+00)
 number of electron     618.0000004 magnetization       7.1788160
 augmentation part       60.6518031 magnetization       5.6969391

 Free energy of the ion-electron system (eV)
  ---------------------------------------------------
  alpha Z        PSCENC =       638.83506748
  Ewald energy   TEWEN  =     -6204.16234405
  -Hartree energ DENC   =    -30895.45190232
  -exchange      EXHF   =      1771.66514947
  -V(xc)+E(xc)   XCENC  =      1345.37245905
  PAW double counting   =     28219.17265386   -27675.08508784
  entropy T*S    EENTRO =        -0.00000000
  eigenvalues    EBANDS =     -6664.01050390
  atomic energy  EATOM  =     38280.97629729
  Solvation  Ediel_sol  =         0.00000000
  ---------------------------------------------------
  free energy    TOTEN  =     -1182.68821098 eV

  energy without entropy =    -1182.68821098  energy(sigma->0) =    -1182.68821098
  exchange ACFDT corr.  =         0.00000000  see jH, gK, PRB 81, 115126


--------------------------------------------------------------------------------------------------------




--------------------------------------- Iteration      1(  11)  ---------------------------------------


    POTLOK:  cpu time    1.5922: real time    1.6028
    SETDIJ:  cpu time    0.6950: real time    0.6967
     EDDAV:  cpu time 2074.6786: real time 2082.8566
       DOS:  cpu time    0.0003: real time    0.0003
    CHARGE:  cpu time    1.2934: real time    1.2966
    MIXING:  cpu time    0.0120: real time    0.0120
    --------------------------------------------
      LOOP:  cpu time 2078.2715: real time 2086.4649

 eigenvalue-minimisations  :  1788
 total energy-change (2. order) :-0.4717673E+01  (-0.3653304E+00)
 number of electron     618.0000004 magnetization      -1.1072896
 augmentation part       60.6480666 magnetization      -2.6066134

 Free energy of the ion-electron system (eV)
  ---------------------------------------------------
  alpha Z        PSCENC =       638.83506748
  Ewald energy   TEWEN  =     -6204.16234405
  -Hartree energ DENC   =    -30926.25258641
  -exchange      EXHF   =      1773.34986854
  -V(xc)+E(xc)   XCENC  =      1342.89118018
  PAW double counting   =     28303.62428101   -27759.56863731
  entropy T*S    EENTRO =        -0.00000000
  eigenvalues    EBANDS =     -6637.09901059
  atomic energy  EATOM  =     38280.97629729
  Solvation  Ediel_sol  =         0.00000000
  ---------------------------------------------------
  free energy    TOTEN  =     -1187.40588386 eV

  energy without entropy =    -1187.40588386  energy(sigma->0) =    -1187.40588386
  exchange ACFDT corr.  =        -0.00000000  see jH, gK, PRB 81, 115126


--------------------------------------------------------------------------------------------------------




--------------------------------------- Iteration      1(  12)  ---------------------------------------


    POTLOK:  cpu time    1.5991: real time    1.6090
    SETDIJ:  cpu time    0.6934: real time    0.6950
     EDDAV:  cpu time 2095.5139: real time 2103.7198
       DOS:  cpu time    0.0003: real time    0.0003
    CHARGE:  cpu time    1.2951: real time    1.2982
    MIXING:  cpu time    0.0070: real time    0.0071
    --------------------------------------------
      LOOP:  cpu time 2099.1088: real time 2107.3294

 eigenvalue-minimisations  :  1808
 total energy-change (2. order) :-0.4610799E+00  (-0.1074735E+00)
 number of electron     618.0000004 magnetization       3.8643738
 augmentation part       60.6151796 magnetization       2.3948125

 Free energy of the ion-electron system (eV)
  ---------------------------------------------------
  alpha Z        PSCENC =       638.83506748
  Ewald energy   TEWEN  =     -6204.16234405
  -Hartree energ DENC   =    -30945.70123710
  -exchange      EXHF   =      1772.69157636
  -V(xc)+E(xc)   XCENC  =      1343.28165535
  PAW double counting   =     28347.56213554   -27803.54819408
  entropy T*S    EENTRO =        -0.00000000
  eigenvalues    EBANDS =     -6617.80192057
  atomic energy  EATOM  =     38280.97629729
  Solvation  Ediel_sol  =         0.00000000
  ---------------------------------------------------
  free energy    TOTEN  =     -1187.86696379 eV

  energy without entropy =    -1187.86696379  energy(sigma->0) =    -1187.86696379
  exchange ACFDT corr.  =        -0.00000000  see jH, gK, PRB 81, 115126


--------------------------------------------------------------------------------------------------------




--------------------------------------- Iteration      1(  13)  ---------------------------------------


    POTLOK:  cpu time    1.6941: real time    1.7052
    SETDIJ:  cpu time    0.6929: real time    0.6945
     EDDAV:  cpu time 2124.0828: real time 2132.4139
       DOS:  cpu time    0.0003: real time    0.0003
    CHARGE:  cpu time    1.2944: real time    1.2976
    MIXING:  cpu time    0.0117: real time    0.0117
    --------------------------------------------
      LOOP:  cpu time 2127.7762: real time 2136.1232

 eigenvalue-minimisations  :  1836
 total energy-change (2. order) :-0.8042848E+00  (-0.4208923E-01)
 number of electron     618.0000004 magnetization       0.8813757
 augmentation part       60.5891914 magnetization      -0.5928744

 Free energy of the ion-electron system (eV)
  ---------------------------------------------------
  alpha Z        PSCENC =       638.83506748
  Ewald energy   TEWEN  =     -6204.16234405
  -Hartree energ DENC   =    -30957.21919225
  -exchange      EXHF   =      1772.08910602
  -V(xc)+E(xc)   XCENC  =      1343.07210277
  PAW double counting   =     28366.49996606   -27822.47945375
  entropy T*S    EENTRO =        -0.00000000
  eigenvalues    EBANDS =     -6606.28279812
  atomic energy  EATOM  =     38280.97629729
  Solvation  Ediel_sol  =         0.00000000
  ---------------------------------------------------
  free energy    TOTEN  =     -1188.67124855 eV

  energy without entropy =    -1188.67124855  energy(sigma->0) =    -1188.67124855
  exchange ACFDT corr.  =        -0.00000000  see jH, gK, PRB 81, 115126


--------------------------------------------------------------------------------------------------------




--------------------------------------- Iteration      1(  14)  ---------------------------------------


    POTLOK:  cpu time    1.6700: real time    1.6857
    SETDIJ:  cpu time    0.6931: real time    0.6948
     EDDAV:  cpu time 2119.7883: real time 2128.1290
       DOS:  cpu time    0.0003: real time    0.0003
    CHARGE:  cpu time    1.3017: real time    1.3048
    MIXING:  cpu time    0.0065: real time    0.0066
    --------------------------------------------
      LOOP:  cpu time 2123.4599: real time 2131.8212

 eigenvalue-minimisations  :  1848
 total energy-change (2. order) : 0.2967672E-01  (-0.1139356E-01)
 number of electron     618.0000004 magnetization       2.6711746
 augmentation part       60.5859694 magnetization       1.2059223

 Free energy of the ion-electron system (eV)
  ---------------------------------------------------
  alpha Z        PSCENC =       638.83506748
  Ewald energy   TEWEN  =     -6204.16234405
  -Hartree energ DENC   =    -30963.51627553
  -exchange      EXHF   =      1771.60332350
  -V(xc)+E(xc)   XCENC  =      1343.19761946
  PAW double counting   =     28372.70297262   -27828.65356099
  entropy T*S    EENTRO =        -0.00000000
  eigenvalues    EBANDS =     -6599.62467162
  atomic energy  EATOM  =     38280.97629729
  Solvation  Ediel_sol  =         0.00000000
  ---------------------------------------------------
  free energy    TOTEN  =     -1188.64157183 eV

  energy without entropy =    -1188.64157183  energy(sigma->0) =    -1188.64157183
  exchange ACFDT corr.  =         0.00000000  see jH, gK, PRB 81, 115126


--------------------------------------------------------------------------------------------------------




--------------------------------------- Iteration      1(  15)  ---------------------------------------


    POTLOK:  cpu time    1.7109: real time    1.7248
    SETDIJ:  cpu time    0.7048: real time    0.7180
     EDDAV:  cpu time 2223.2475: real time 2232.0154
       DOS:  cpu time    0.0003: real time    0.0003
    CHARGE:  cpu time    1.2978: real time    1.3009
    MIXING:  cpu time    0.0067: real time    0.0067
    --------------------------------------------
      LOOP:  cpu time 2226.9680: real time 2235.7661

 eigenvalue-minimisations  :  1976
 total energy-change (2. order) :-0.9270397E-01  (-0.5395957E-02)
 number of electron     618.0000004 magnetization       1.5972953
 augmentation part       60.5857331 magnetization       0.1286653

 Free energy of the ion-electron system (eV)
  ---------------------------------------------------
  alpha Z        PSCENC =       638.83506748
  Ewald energy   TEWEN  =     -6204.16234405
  -Hartree energ DENC   =    -30968.74312507
  -exchange      EXHF   =      1771.55145932
  -V(xc)+E(xc)   XCENC  =      1343.24154410
  PAW double counting   =     28375.60476277   -27831.53348412
  entropy T*S    EENTRO =        -0.00000000
  eigenvalues    EBANDS =     -6594.50445352
  atomic energy  EATOM  =     38280.97629729
  Solvation  Ediel_sol  =         0.00000000
  ---------------------------------------------------
  free energy    TOTEN  =     -1188.73427580 eV

  energy without entropy =    -1188.73427580  energy(sigma->0) =    -1188.73427580
  exchange ACFDT corr.  =         0.00000000  see jH, gK, PRB 81, 115126


--------------------------------------------------------------------------------------------------------




--------------------------------------- Iteration      1(  16)  ---------------------------------------


    POTLOK:  cpu time    1.7090: real time    1.7198
    SETDIJ:  cpu time    0.6950: real time    0.6966
     EDDAV:  cpu time 2186.9338: real time 2195.6842
       DOS:  cpu time    0.0003: real time    0.0003
    CHARGE:  cpu time    1.2955: real time    1.2986
    MIXING:  cpu time    0.0117: real time    0.0118
    --------------------------------------------
      LOOP:  cpu time 2190.6453: real time 2199.4113

 eigenvalue-minimisations  :  1928
 total energy-change (2. order) : 0.1709017E-02  (-0.1027223E-02)
 number of electron     618.0000004 magnetization       2.2416228
 augmentation part       60.5846316 magnetization       0.7752265

 Free energy of the ion-electron system (eV)
  ---------------------------------------------------
  alpha Z        PSCENC =       638.83506748
  Ewald energy   TEWEN  =     -6204.16234405
  -Hartree energ DENC   =    -30973.03624658
  -exchange      EXHF   =      1771.50947578
  -V(xc)+E(xc)   XCENC  =      1343.31333826
  PAW double counting   =     28377.05001818   -27832.96704165
  entropy T*S    EENTRO =        -0.00000000
  eigenvalues    EBANDS =     -6590.25113149
  atomic energy  EATOM  =     38280.97629729
  Solvation  Ediel_sol  =         0.00000000
  ---------------------------------------------------
  free energy    TOTEN  =     -1188.73256679 eV

  energy without entropy =    -1188.73256679  energy(sigma->0) =    -1188.73256679
  exchange ACFDT corr.  =        -0.00000000  see jH, gK, PRB 81, 115126


--------------------------------------------------------------------------------------------------------




--------------------------------------- Iteration      1(  17)  ---------------------------------------


    POTLOK:  cpu time    1.7102: real time    1.7216
    SETDIJ:  cpu time    0.6916: real time    0.6933
     EDDAV:  cpu time 2142.5043: real time 2150.8972
       DOS:  cpu time    0.0003: real time    0.0003
    CHARGE:  cpu time    1.2953: real time    1.2984
    MIXING:  cpu time    0.0069: real time    0.0069
    --------------------------------------------
      LOOP:  cpu time 2146.2085: real time 2154.6176

 eigenvalue-minimisations  :  1864
 total energy-change (2. order) :-0.4379062E-02  (-0.5809048E-03)
 number of electron     618.0000004 magnetization       1.8550263
 augmentation part       60.5831497 magnetization       0.3871204

 Free energy of the ion-electron system (eV)
  ---------------------------------------------------
  alpha Z        PSCENC =       638.83506748
  Ewald energy   TEWEN  =     -6204.16234405
  -Hartree energ DENC   =    -30976.62318044
  -exchange      EXHF   =      1771.49020044
  -V(xc)+E(xc)   XCENC  =      1343.37382025
  PAW double counting   =     28377.66011930   -27833.56933769
  entropy T*S    EENTRO =        -0.00000000
  eigenvalues    EBANDS =     -6586.71758843
  atomic energy  EATOM  =     38280.97629729
  Solvation  Ediel_sol  =         0.00000000
  ---------------------------------------------------
  free energy    TOTEN  =     -1188.73694585 eV

  energy without entropy =    -1188.73694585  energy(sigma->0) =    -1188.73694585
  exchange ACFDT corr.  =        -0.00000000  see jH, gK, PRB 81, 115126


--------------------------------------------------------------------------------------------------------




--------------------------------------- Iteration      1(  18)  ---------------------------------------


    POTLOK:  cpu time    1.7102: real time    1.7203
    SETDIJ:  cpu time    0.6951: real time    0.6968
     EDDAV:  cpu time 2223.4718: real time 2232.2817
       DOS:  cpu time    0.0003: real time    0.0003
    CHARGE:  cpu time    1.2941: real time    1.2972
    MIXING:  cpu time    0.0110: real time    0.0110
    --------------------------------------------
      LOOP:  cpu time 2227.1826: real time 2236.0073

 eigenvalue-minimisations  :  1968
 total energy-change (2. order) :-0.1364405E-02  (-0.2254618E-03)
 number of electron     618.0000004 magnetization       2.0869842
 augmentation part       60.5814269 magnetization       0.6200922

 Free energy of the ion-electron system (eV)
  ---------------------------------------------------
  alpha Z        PSCENC =       638.83506748
  Ewald energy   TEWEN  =     -6204.16234405
  -Hartree energ DENC   =    -30979.50867874
  -exchange      EXHF   =      1771.45909465
  -V(xc)+E(xc)   XCENC  =      1343.41677725
  PAW double counting   =     28377.72269942   -27833.62764847
  entropy T*S    EENTRO =        -0.00000000
  eigenvalues    EBANDS =     -6583.84957508
  atomic energy  EATOM  =     38280.97629729
  Solvation  Ediel_sol  =         0.00000000
  ---------------------------------------------------
  free energy    TOTEN  =     -1188.73831025 eV

  energy without entropy =    -1188.73831025  energy(sigma->0) =    -1188.73831025
  exchange ACFDT corr.  =         0.00000000  see jH, gK, PRB 81, 115126


--------------------------------------------------------------------------------------------------------




--------------------------------------- Iteration      1(  19)  ---------------------------------------


    POTLOK:  cpu time    1.7121: real time    1.7225
    SETDIJ:  cpu time    0.6933: real time    0.6950
     EDDAV:  cpu time 2195.2056: real time 2203.8518
       DOS:  cpu time    0.0003: real time    0.0003
    CHARGE:  cpu time    1.2968: real time    1.2999
    MIXING:  cpu time    0.0077: real time    0.0077
    --------------------------------------------
      LOOP:  cpu time 2198.9157: real time 2207.5772

 eigenvalue-minimisations  :  1936
 total energy-change (2. order) :-0.1224223E-02  (-0.1260272E-03)
 number of electron     618.0000004 magnetization       1.9478095
[...]
     -2.32473     11.68457     12.36484        -0.222043     -0.325545     -0.017765
      2.38656     11.81609      2.42598         0.309239      0.272086     -0.243761
      4.52535      7.93135     12.09853        -0.477811      0.159627     -0.101585
      2.32455      3.79972      2.34827         0.208484     -0.345956     -0.022119
     -2.09053      3.97969     12.27470         0.390215     -0.012296     -0.047402
      8.92331      7.88578      2.50702        -0.423365     -0.031974     -0.022709
      4.47447      7.56422      7.47289        -0.249275     -0.287232     -0.098274
     -2.11155     11.75459      7.00868         0.354665      0.323640      0.015474
     11.27374      3.99494      7.32730        -0.208664      0.402608      0.014907
      2.23289      4.17690      7.09426         0.253571      0.301392      0.128699
      9.07986      7.61645      7.42486         0.216115     -0.369309     -0.027609
      8.83469      0.09270      7.61932        -0.372632     -0.136787     -0.150212
     -0.07131      2.86529      1.92229         0.010336     -0.105272     -0.342247
      6.94715      8.87404     12.72877         0.356541      0.114587      0.350296
      4.46313     10.43636      1.64824         0.007667      0.016950     -0.139558
      2.36083      1.28361     12.86853        -0.025418      0.000037      0.269175
     -4.50997     10.43762      1.93012        -0.036767      0.043599     -0.285436
     11.07852      1.47074     12.72312         0.152013     -0.046879      0.332516
      6.78363      6.66256      6.66800         0.005142     -0.108973     -0.161685
      6.72969      0.99763      2.58326        -0.279602      0.152013      0.373441
      4.22448      2.46901      6.88834         0.154130      0.147372     -0.379501
      9.13093      5.29631      2.82952        -0.042637      0.003660      0.393510
      9.28657      2.44397      6.66829        -0.121924      0.129992     -0.187434
      4.37128      5.39098      2.79229         0.067148     -0.065984      0.366718
     -0.02632     10.56482     11.91524         0.014284     -0.016992     -0.377342
     -0.06717      5.05537      7.95357         0.004878      0.113535      0.190159
     -2.20226      6.55630     11.82515        -0.068318     -0.040556     -0.382567
      2.55850      9.33111      7.71641        -0.187617     -0.166596      0.366787
      2.46044      6.32046     11.82087        -0.119402      0.017222     -0.396924
     -2.52231      9.17184      7.97793        -0.075857     -0.351158      0.196608
     11.86530      3.08533     14.70127         0.149300     -0.294482     -0.000135
      8.64737      8.64510      0.02720        -0.149423      0.320310      0.030846
      5.07377      8.43367      0.01646         0.123843      0.405896      0.311022
      1.65569      3.14567     14.65184        -0.140704     -0.354548      0.013533
     -3.20778     11.80892      0.05006        -0.392818      0.009594     -0.001468
      4.78974      6.92151      4.93018         0.284770     -0.268691      0.014411
      8.27592      0.55086      5.05877        -0.019201      0.393405      0.263827
      5.27821      1.27287      4.79226        -0.020313      0.061392      0.003766
      8.74759      6.90758      4.91208        -0.269974     -0.278391      0.015789
     10.40896      4.12032      4.86168        -0.398400     -0.134387      0.035826
      3.39494      3.87676      4.75662         0.251464      0.036050      0.003644
     -1.63292     11.19941      9.84045         0.048936     -0.358248      0.282603
      1.99079      4.82518      9.66509        -0.303370      0.239384     -0.020384
     -1.98761      4.80589      9.80237         0.284332      0.269533     -0.032935
      1.72589     10.63211      9.86874        -0.142684     -0.148464      0.010620
      3.27786      7.80887      9.79455        -0.195551     -0.000178     -0.087051
     -3.63322      7.59786      9.85967         0.337859      0.129775     -0.030012
      9.89251      0.12797     14.70538         0.411833     -0.066502      0.019886
      7.19261      5.58891     10.23048         0.171261      1.370766     -2.138943
      7.19938      6.44813      9.31696        -0.007800     -1.806448      1.859122
     12.04378      2.71989      1.50964         0.018309      0.033716      0.020951
     -5.19767      9.02274     13.22758        -0.245795     -0.047223     -0.110312
      5.24333      9.03701      1.48738        -0.059845      0.008937     -0.047778
      1.49151      2.61685     13.12137         0.046020     -0.010130     -0.056893
     -3.81247     11.84153      1.57074         0.016628     -0.058267      0.061162
     10.47767      0.02549     13.15309         0.025646     -0.033002      0.005830
     -3.67009     11.78111     13.25245        -0.013890     -0.000948     -0.068039
      3.67676     11.81799      1.48466        -0.067522     -0.071811      0.027107
      1.47148      2.74790      1.45967        -0.038215      0.051399      0.038802
     12.04689      2.69299     13.14248        -0.073871      0.003382     -0.044957
      8.36894      9.08181      1.57120         0.028983     -0.006900      0.007860
      5.19895      6.53809      6.44552         0.003860      0.052120     -0.005233
      5.25756      1.28915      6.42120        -0.083803     -0.052241      0.008313
      8.37582      6.62002      3.35415         0.072978      0.027354     -0.039693
      9.93692      3.87952      6.39328         0.057640     -0.066360      0.038139
      3.71822      3.95789      3.16422        -0.021845      0.036353     -0.055542
      9.87279      3.92796      3.32159         0.007447      0.002259     -0.053349
      3.65687      3.87157      6.35749        -0.032564     -0.063234      0.053590
      5.25766      1.30950      3.18683         0.162275     -0.059447     -0.007551
      8.37494      6.53996      6.44181        -0.010794      0.094448     -0.036579
      5.16653      6.68321      3.36445        -0.082133      0.049660     -0.038469
      8.27367      1.17869      6.53004         0.055923     -0.048570      0.010018
     -1.55569     10.67158     11.34000         0.022955      0.038804      0.005171
      1.53514      5.17536      8.14490        -0.006941     -0.038279     -0.034176
     -1.55126      5.16487     11.32969        -0.029608     -0.006115      0.058474
      1.56281     10.52205      8.25642        -0.064459      0.035223     -0.012582
      3.07645      7.76604     11.40614         0.226568      0.041313      0.163584
     -3.23977      7.79880      8.28915         0.039910      0.100830     -0.061892
      3.06981      7.87764      8.19928         0.035260      0.041056      0.036249
     -3.08049      7.83891     11.37319        -0.048292     -0.015243      0.119032
     -1.66363      5.08859      8.24319        -0.012255     -0.020301     -0.025441
      1.51951     10.43615     11.45556         0.023794      0.004266      0.033900
      1.63882      5.04811     11.24803         0.054153      0.030750      0.064341
      5.26164      9.10105     13.20558         0.072259     -0.118395     -0.108085
      8.31113      1.07681      3.41901        -0.034188     -0.061372     -0.044907
     -1.61028     10.63098      8.19968         0.009422      0.000799     -0.030988
      7.50100      0.24938      0.54764        -0.005588     -0.022259     -0.000700
     -0.22609      7.94654      7.07203         0.000151      0.015606     -0.033935
      6.50800      6.72918     11.95886        -0.142301      0.211278      0.318869
 -----------------------------------------------------------------------------------
    total drift:                               -0.001001      0.003781     -0.009102


--------------------------------------------------------------------------------------------------------



  FREE ENERGIE OF THE ION-ELECTRON SYSTEM (eV)
  ---------------------------------------------------
  free  energy   TOTEN  =     -1188.74339951 eV

  energy  without entropy=    -1188.74339951  energy(sigma->0) =    -1188.74339951
 


--------------------------------------------------------------------------------------------------------


    POTLOK:  cpu time    2.3717: real time    2.3775


--------------------------------------------------------------------------------------------------------


 stress matrix after NEB project (eV)
      0.00000      0.00000      0.00000
      0.00000      0.00000      0.00000
      0.00000      0.00000      0.00000
  FORCES: max atom, RMS     2.592228    0.464315
  FORCE total and by dimension    4.935740    2.138943
  Stress total and by dimension    0.000000    0.000000
     LOOP+:  cpu time72065.8168: real time72360.0890
    4ORBIT:  cpu time    0.0000: real time    0.0000
 


 total charge     
 
# of ion       s       p       d       tot
------------------------------------------
    1        1.577   3.724   0.000   5.302
    2        1.577   3.730   0.000   5.307
    3        1.579   3.732   0.000   5.311
    4        1.578   3.718   0.000   5.295
    5        1.577   3.727   0.000   5.304
    6        1.580   3.695   0.000   5.274
    7        1.581   3.723   0.000   5.304
    8        1.579   3.698   0.000   5.277
    9        1.581   3.696   0.000   5.278
   10        1.574   3.729   0.000   5.303
   11        1.580   3.715   0.000   5.295
   12        1.581   3.713   0.000   5.293
   13        1.574   3.740   0.000   5.314
   14        1.578   3.684   0.000   5.262
   15        1.576   3.744   0.000   5.320
   16        1.579   3.663   0.000   5.242
   17        1.579   3.711   0.000   5.290
   18        1.579   3.693   0.000   5.272
   19        1.579   3.729   0.000   5.308
   20        1.581   3.719   0.000   5.299
   21        1.583   3.726   0.000   5.309
   22        1.579   3.726   0.000   5.304
   23        1.582   3.728   0.000   5.310
   24        1.580   3.725   0.000   5.305
   25        1.580   3.724   0.000   5.304
   26        1.584   3.683   0.000   5.267
   27        1.578   3.678   0.000   5.256
   28        1.579   3.727   0.000   5.306
   29        1.580   3.736   0.000   5.317
   30        1.581   3.729   0.000   5.310
   31        1.580   3.731   0.000   5.311
   32        1.584   3.693   0.000   5.276
   33        1.581   3.724   0.000   5.305
   34        1.580   3.726   0.000   5.306
   35        1.581   3.728   0.000   5.310
   36        1.581   3.720   0.000   5.302
   37        1.578   3.734   0.000   5.313
   38        1.580   3.675   0.000   5.256
   39        1.575   3.762   0.000   5.337
   40        1.575   3.746   0.000   5.321
   41        1.577   3.747   0.000   5.324
   42        1.579   3.731   0.000   5.310
   43        1.575   3.758   0.000   5.333
   44        1.578   3.663   0.000   5.241
   45        1.582   3.725   0.000   5.307
   46        1.579   3.727   0.000   5.306
   47        1.575   3.747   0.000   5.322
   48        1.578   3.730   0.000   5.308
   49        1.579   3.723   0.000   5.302
   50        1.574   3.741   0.000   5.316
   51        1.580   3.734   0.000   5.314
   52        1.582   3.714   0.000   5.295
   53        1.580   3.726   0.000   5.305
   54        1.581   3.702   0.000   5.282
   55        1.578   3.731   0.000   5.309
   56        1.579   3.726   0.000   5.305
   57        1.585   3.681   0.000   5.266
   58        1.578   3.717   0.000   5.295
   59        1.580   3.713   0.000   5.293
   60        1.581   3.727   0.000   5.308
   61        1.582   3.685   0.000   5.267
   62        1.573   3.750   0.000   5.323
   63        1.580   3.727   0.000   5.307
   64        1.581   3.714   0.000   5.295
   65        1.574   3.734   0.000   5.308
   66        1.581   3.683   0.000   5.264
   67        1.578   3.716   0.000   5.294
   68        1.580   3.725   0.000   5.305
   69        1.575   3.743   0.000   5.318
   70        1.575   3.746   0.000   5.321
   71        1.580   3.718   0.000   5.298
   72        1.579   3.683   0.000   5.263
   73        1.634   3.311   0.000   4.946
   74        1.651   3.239   0.000   4.890
   75        0.637   0.994   0.000   1.631
   76        0.644   1.000   0.000   1.644
   77        0.646   1.011   0.000   1.657
   78        0.635   0.986   0.000   1.621
   79        0.638   0.996   0.000   1.635
   80        0.644   0.998   0.000   1.642
   81        0.637   0.993   0.000   1.630
   82        0.643   1.001   0.000   1.644
   83        0.635   0.987   0.000   1.622
   84        0.638   0.995   0.000   1.633
   85        0.640   1.002   0.000   1.642
   86        0.641   1.006   0.000   1.647
   87        0.643   0.997   0.000   1.640
   88        0.638   0.993   0.000   1.631
   89        0.638   0.993   0.000   1.631
   90        0.636   0.989   0.000   1.625
   91        0.642   0.998   0.000   1.640
   92        0.639   0.995   0.000   1.634
   93        0.644   1.001   0.000   1.644
   94        0.640   1.001   0.000   1.641
   95        0.638   0.993   0.000   1.631
   96        0.642   0.993   0.000   1.636
   97        0.641   0.993   0.000   1.634
   98        0.636   0.983   0.000   1.618
   99        0.639   1.001   0.000   1.640
  100        0.643   0.995   0.000   1.638
  101        0.641   0.995   0.000   1.636
  102        0.645   1.001   0.000   1.646
  103        0.639   0.991   0.000   1.630
  104        0.639   0.998   0.000   1.637
  105        0.640   0.994   0.000   1.634
  106        0.637   0.992   0.000   1.629
  107        0.636   0.991   0.000   1.627
  108        0.352   0.472   0.000   0.825
  109        0.350   0.470   0.000   0.820
  110        0.349   0.469   0.000   0.817
  111        0.091   0.062   9.257   9.409
  112        0.098   0.074   9.260   9.432
  113        0.123   0.100   9.216   9.439
--------------------------------------------------
tot        139.450 308.846  27.733 476.029
 


 magnetization (x)
 
# of ion       s       p       d       tot
------------------------------------------
    1        0.000  -0.000   0.000  -0.000
    2       -0.000   0.000   0.000   0.000
    3        0.000   0.000   0.000   0.000
    4        0.000   0.000   0.000   0.000
    5       -0.000   0.000   0.000   0.000
    6        0.000   0.000   0.000   0.000
    7       -0.000  -0.000   0.000  -0.000
    8       -0.000  -0.000   0.000  -0.000
    9       -0.000  -0.000   0.000  -0.000
   10       -0.000  -0.000   0.000  -0.000
   11        0.000   0.000   0.000   0.000
   12       -0.000  -0.000   0.000  -0.000
   13        0.000   0.000   0.000   0.000
   14        0.000   0.000   0.000   0.000
   15       -0.000  -0.000   0.000  -0.000
   16       -0.000   0.000   0.000   0.000
   17        0.000   0.000   0.000   0.000
   18        0.000  -0.000   0.000  -0.000
   19        0.000   0.000   0.000   0.000
   20        0.000   0.001   0.000   0.001
   21        0.000   0.000   0.000   0.000
   22        0.000   0.000   0.000   0.000
   23        0.000   0.000   0.000   0.000
   24       -0.000   0.000   0.000   0.000
   25       -0.000   0.000   0.000   0.000
   26       -0.000   0.000   0.000   0.000
   27        0.000   0.002   0.000   0.002
   28       -0.000   0.000   0.000   0.000
   29       -0.000   0.000   0.000   0.000
   30        0.000  -0.000   0.000  -0.000
   31        0.000   0.000   0.000   0.000
   32       -0.000  -0.000   0.000  -0.000
   33       -0.000   0.000   0.000   0.000
   34       -0.000  -0.000   0.000  -0.000
   35        0.000   0.003   0.000   0.003
   36       -0.000  -0.000   0.000  -0.000
   37        0.000   0.000   0.000   0.000
   38       -0.000  -0.000   0.000  -0.000
   39       -0.000  -0.000   0.000  -0.000
   40       -0.000   0.000   0.000   0.000
   41        0.000   0.000   0.000   0.000
   42        0.000   0.000   0.000   0.000
   43        0.000   0.005   0.000   0.006
   44       -0.000   0.000   0.000   0.000
   45        0.000   0.000   0.000   0.000
   46       -0.000  -0.000   0.000  -0.000
   47       -0.000   0.000   0.000   0.000
   48        0.000   0.000   0.000   0.000
   49        0.000   0.000   0.000   0.000
   50       -0.000  -0.000   0.000  -0.000
   51       -0.000   0.000   0.000   0.000
   52        0.000   0.000   0.000   0.000
   53       -0.000  -0.000   0.000  -0.000
   54        0.000   0.000   0.000   0.000
   55        0.000   0.000   0.000   0.000
   56        0.000   0.000   0.000   0.000
   57        0.000  -0.000   0.000  -0.000
   58       -0.000  -0.000   0.000  -0.000
   59       -0.000  -0.000   0.000  -0.000
   60        0.000   0.000   0.000   0.000
   61       -0.000   0.000   0.000   0.000
   62       -0.000   0.000   0.000   0.000
   63        0.000   0.000   0.000   0.000
   64        0.000   0.000   0.000   0.000
   65       -0.000   0.000   0.000   0.000
   66        0.000   0.000   0.000   0.000
   67       -0.000  -0.000   0.000  -0.000
   68       -0.000  -0.000   0.000  -0.000
   69       -0.000   0.000   0.000   0.000
   70       -0.000  -0.000   0.000  -0.000
   71        0.000   0.000   0.000   0.000
   72       -0.000   0.000   0.000   0.000
   73        0.013   0.727   0.000   0.740
   74        0.015   0.872   0.000   0.886
   75       -0.000   0.000   0.000   0.000
   76       -0.000  -0.000   0.000  -0.000
   77        0.000   0.000   0.000   0.000
   78       -0.000   0.000   0.000   0.000
   79       -0.000   0.000   0.000  -0.000
   80       -0.000   0.000   0.000  -0.000
   81       -0.000  -0.000   0.000  -0.000
   82        0.000   0.000   0.000   0.000
   83       -0.000  -0.000   0.000  -0.000
   84       -0.000  -0.000   0.000  -0.000
   85        0.000   0.000   0.000   0.000
   86       -0.000  -0.000   0.000  -0.000
   87       -0.000  -0.000   0.000  -0.000
   88       -0.000   0.000   0.000   0.000
   89       -0.000   0.000   0.000  -0.000
   90       -0.000  -0.000   0.000  -0.000
   91       -0.000  -0.000   0.000  -0.000
   92       -0.000  -0.000   0.000  -0.000
   93       -0.000   0.000   0.000   0.000
   94       -0.000  -0.000   0.000  -0.000
   95       -0.000  -0.000   0.000  -0.000
   96       -0.000  -0.000   0.000  -0.000
   97       -0.000  -0.000   0.000  -0.000
   98       -0.000   0.000   0.000   0.000
   99       -0.000  -0.000   0.000  -0.000
  100       -0.000   0.000   0.000   0.000
  101        0.000   0.000   0.000   0.000
  102       -0.000  -0.000   0.000  -0.000
  103       -0.000  -0.000   0.000  -0.000
  104       -0.000   0.000   0.000   0.000
  105       -0.000   0.000   0.000   0.000
  106        0.000   0.000   0.000   0.000
  107       -0.000  -0.000   0.000  -0.000
  108        0.000  -0.000   0.000   0.000
  109        0.000  -0.000   0.000  -0.000
  110        0.000   0.000   0.000   0.000
  111        0.000   0.000  -0.000  -0.000
  112       -0.000  -0.000   0.000   0.000
  113        0.010   0.004   0.057   0.072
--------------------------------------------------
tot          0.039   1.615   0.057   1.711
 

 total amount of memory used by VASP MPI-rank0   226675. kBytes
=======================================================================

   base      :      30000. kBytes
   nonlr-proj:      31551. kBytes
   fftplans  :      69849. kBytes
   grid      :      56122. kBytes
   one-center:        902. kBytes
   HF        :        259. kBytes
   wavefun   :      37992. kBytes
 
  
  
 General timing and accounting informations for this job:
 ========================================================
  
                  Total CPU time used (sec):    72088.062
                            User time (sec):    65495.579
                          System time (sec):     6592.484
                         Elapsed time (sec):    72383.034
  
                   Maximum memory used (kb):      452688.
                   Average memory used (kb):           0.
  
                          Minor page faults:      4215700
                          Major page faults:            3
                 Voluntary context switches:         1360
