 vasp.5.4.4.18Apr17-6-g9f103f2a35 (build Dec 31 2018 11:41:54) complex          
  
 executed on             LinuxIFC date 2022.06.29  18:11:56
 running on   16 total cores
 distrk:  each k-point on   16 cores,    1 groups
 distr:  one band on NCORES_PER_BAND=   4 cores,    4 groups


--------------------------------------------------------------------------------------------------------


 INCAR:
 POTCAR:   PAW_PBE O 08Apr2002                    
 POTCAR:   PAW_PBE Si 05Jan2001                   
 POTCAR:   PAW_PBE Al 04Jan2001                   
 POTCAR:   PAW_PBE Ag 06Sep2000                   
 POTCAR:    PAW_PBE S 17Jan2003                   
 POTCAR:   PAW_PBE C 08Apr2002                    
 POTCAR:   PAW_PBE H 15Jun2001                    
 POTCAR:   PAW_PBE O 08Apr2002                    
   VRHFIN =O: s2p4                                                              
   LEXCH  = PE                                                                  
   EATOM  =   432.3788 eV,   31.7789 Ry                                         
                                                                                
   TITEL  = PAW_PBE O 08Apr2002                                                 
   LULTRA =        F    use ultrasoft PP ?                                      
   IUNSCR =        0    unscreen: 0-lin 1-nonlin 2-no                           
   RPACOR =     .000    partial core radius                                     
   POMASS =   16.000; ZVAL   =    6.000    mass and valenz                      
   RCORE  =    1.520    outmost cutoff radius                                   
   RWIGS  =    1.550; RWIGS  =     .820    wigner-seitz radius (au A)           
   ENMAX  =  400.000; ENMIN  =  300.000 eV                                      
   ICORE  =        2    local potential                                         
   LCOR   =        T    correct aug charges                                     
   LPAW   =        T    paw PP                                                  
   EAUG   =  605.392                                                            
   DEXC   =     .000                                                            
   RMAX   =    2.264    core radius for proj-oper                               
   RAUG   =    1.300    factor for augmentation sphere                          
   RDEP   =    1.550    radius for radial grids                                 
   QCUT   =   -5.520; QGAM   =   11.041    optimization parameters              
                                                                                
   Description                                                                  
     l     E      TYP  RCUT    TYP  RCUT                                        
     0   .000     23  1.200                                                     
     0  -.700     23  1.200                                                     
     1   .000     23  1.520                                                     
     1   .600     23  1.520                                                     
     2   .000      7  1.500                                                     
  local pseudopotential read in
  atomic valenz-charges read in
  non local Contribution for L=           0  read in
    real space projection operators read in
  non local Contribution for L=           0  read in
    real space projection operators read in
  non local Contribution for L=           1  read in
    real space projection operators read in
  non local Contribution for L=           1  read in
    real space projection operators read in
    PAW grid and wavefunctions read in
 
   number of l-projection  operators is LMAX  =           4
   number of lm-projection operators is LMMAX =           8
 
 POTCAR:   PAW_PBE Si 05Jan2001                   
   VRHFIN =Si: s2p2                                                             
   LEXCH  = PE                                                                  
   EATOM  =   103.0669 eV,    7.5752 Ry                                         
                                                                                
   TITEL  = PAW_PBE Si 05Jan2001                                                
   LULTRA =        F    use ultrasoft PP ?                                      
   IUNSCR =        1    unscreen: 0-lin 1-nonlin 2-no                           
   RPACOR =    1.500    partial core radius                                     
   POMASS =   28.085; ZVAL   =    4.000    mass and valenz                      
   RCORE  =    1.900    outmost cutoff radius                                   
   RWIGS  =    2.480; RWIGS  =    1.312    wigner-seitz radius (au A)           
   ENMAX  =  245.345; ENMIN  =  184.009 eV                                      
   ICORE  =        2    local potential                                         
   LCOR   =        T    correct aug charges                                     
   LPAW   =        T    paw PP                                                  
   EAUG   =  322.069                                                            
   DEXC   =    -.007                                                            
   RMAX   =    2.944    core radius for proj-oper                               
   RAUG   =    1.300    factor for augmentation sphere                          
   RDEP   =    1.993    radius for radial grids                                 
   QCUT   =   -4.246; QGAM   =    8.493    optimization parameters              
                                                                                
   Description                                                                  
     l     E      TYP  RCUT    TYP  RCUT                                        
     0   .000     23  1.900                                                     
     0   .000     23  1.900                                                     
     1   .000     23  1.900                                                     
     1   .000     23  1.900                                                     
     2   .000      7  1.900                                                     
  local pseudopotential read in
  partial core-charges read in
  atomic valenz-charges read in
  non local Contribution for L=           0  read in
    real space projection operators read in
  non local Contribution for L=           0  read in
    real space projection operators read in
  non local Contribution for L=           1  read in
    real space projection operators read in
  non local Contribution for L=           1  read in
    real space projection operators read in
    PAW grid and wavefunctions read in
 
   number of l-projection  operators is LMAX  =           4
   number of lm-projection operators is LMMAX =           8
 
 POTCAR:   PAW_PBE Al 04Jan2001                   
   VRHFIN =Al: s2p1                                                             
   LEXCH  = PE                                                                  
   EATOM  =    53.5387 eV,    3.9350 Ry                                         
                                                                                
   TITEL  = PAW_PBE Al 04Jan2001                                                
   LULTRA =        F    use ultrasoft PP ?                                      
   IUNSCR =        1    unscreen: 0-lin 1-nonlin 2-no                           
   RPACOR =    1.500    partial core radius                                     
   POMASS =   26.982; ZVAL   =    3.000    mass and valenz                      
   RCORE  =    1.900    outmost cutoff radius                                   
   RWIGS  =    2.650; RWIGS  =    1.402    wigner-seitz radius (au A)           
   ENMAX  =  240.300; ENMIN  =  180.225 eV                                      
   ICORE  =        2    local potential                                         
   LCOR   =        T    correct aug charges                                     
   LPAW   =        T    paw PP                                                  
   EAUG   =  291.052                                                            
   DEXC   =    -.041                                                            
   RMAX   =    2.974    core radius for proj-oper                               
   RAUG   =    1.300    factor for augmentation sphere                          
   RDEP   =    1.966    radius for radial grids                                 
   QCUT   =   -4.203; QGAM   =    8.405    optimization parameters              
                                                                                
   Description                                                                  
     l     E      TYP  RCUT    TYP  RCUT                                        
     0   .000     23  1.900                                                     
     0   .000     23  1.900                                                     
     1   .000     23  1.900                                                     
     1  1.000     23  1.900                                                     
     2   .000      7  1.900                                                     
  local pseudopotential read in
  partial core-charges read in
  atomic valenz-charges read in
  non local Contribution for L=           0  read in
    real space projection operators read in
  non local Contribution for L=           0  read in
    real space projection operators read in
  non local Contribution for L=           1  read in
    real space projection operators read in
  non local Contribution for L=           1  read in
    real space projection operators read in
    PAW grid and wavefunctions read in
 
   number of l-projection  operators is LMAX  =           4
   number of lm-projection operators is LMMAX =           8
 
 POTCAR:   PAW_PBE Ag 06Sep2000                   
   VRHFIN =Ag : s1 d10                                                          
   LEXCH  = PE                                                                  
   EATOM  =  1037.4134 eV,   76.2477 Ry                                         
                                                                                
   TITEL  = PAW_PBE Ag 06Sep2000                                                
   LULTRA =        F    use ultrasoft PP ?                                      
   IUNSCR =        1    unscreen: 0-lin 1-nonlin 2-no                           
   RPACOR =    2.000    partial core radius                                     
   POMASS =  107.868; ZVAL   =   11.000    mass and valenz                      
   RCORE  =    2.400    outmost cutoff radius                                   
   RWIGS  =    2.840; RWIGS  =    1.503    wigner-seitz radius (au A)           
   ENMAX  =  249.846; ENMIN  =  187.385 eV                                      
   RCLOC  =    1.962    cutoff for local pot                                    
   LCOR   =        T    correct aug charges                                     
   LPAW   =        T    paw PP                                                  
   EAUG   =  412.496                                                            
   DEXC   =    -.047                                                            
   RMAX   =    2.917    core radius for proj-oper                               
   RAUG   =    1.300    factor for augmentation sphere                          
   RDEP   =    2.416    radius for radial grids                                 
   QCUT   =   -4.285; QGAM   =    8.570    optimization parameters              
                                                                                
   Description                                                                  
     l     E      TYP  RCUT    TYP  RCUT                                        
     2   .000     23  2.400                                                     
     2   .000     23  2.400                                                     
     0   .000     23  2.400                                                     
     0   .000     23  2.400                                                     
     1  -.200     23  2.400                                                     
     1  1.500     23  2.400                                                     
     3   .000      7   .000                                                     
  local pseudopotential read in
  partial core-charges read in
  atomic valenz-charges read in
  non local Contribution for L=           2  read in
    real space projection operators read in
  non local Contribution for L=           2  read in
    real space projection operators read in
  non local Contribution for L=           0  read in
    real space projection operators read in
  non local Contribution for L=           0  read in
    real space projection operators read in
  non local Contribution for L=           1  read in
    real space projection operators read in
  non local Contribution for L=           1  read in
    real space projection operators read in
    PAW grid and wavefunctions read in
 
   number of l-projection  operators is LMAX  =           6
   number of lm-projection operators is LMMAX =          18
 
 POTCAR:    PAW_PBE S 17Jan2003                   
   VRHFIN =S : s2p4                                                             
   LEXCH  = PE                                                                  
   EATOM  =   276.8230 eV,   20.3459 Ry                                         
                                                                                
   TITEL  = PAW_PBE S 17Jan2003                                                 
   LULTRA =        F    use ultrasoft PP ?                                      
   IUNSCR =        1    unscreen: 0-lin 1-nonlin 2-no                           
   RPACOR =    1.500    partial core radius                                     
   POMASS =   32.066; ZVAL   =    6.000    mass and valenz                      
   RCORE  =    1.900    outmost cutoff radius                                   
   RWIGS  =    2.200; RWIGS  =    1.164    wigner-seitz radius (au A)           
   ENMAX  =  280.000; ENMIN  =  194.016 eV                                      
   ICORE  =        2    local potential                                         
   LCOR   =        T    correct aug charges                                     
   LPAW   =        T    paw PP                                                  
   EAUG   =  335.092                                                            
   DEXC   =     .000                                                            
   RMAX   =    2.867    core radius for proj-oper                               
   RAUG   =    1.300    factor for augmentation sphere                          
   RDEP   =    1.954    radius for radial grids                                 
   QCUT   =   -4.360; QGAM   =    8.721    optimization parameters              
                                                                                
   Description                                                                  
     l     E      TYP  RCUT    TYP  RCUT                                        
     0   .000     23  1.900                                                     
     0   .000     23  1.900                                                     
     1   .000     23  1.900                                                     
     1   .000     23  1.900                                                     
     2   .000     23  1.900                                                     
  local pseudopotential read in
  partial core-charges read in
  atomic valenz-charges read in
  non local Contribution for L=           0  read in
    real space projection operators read in
  non local Contribution for L=           0  read in
    real space projection operators read in
  non local Contribution for L=           1  read in
    real space projection operators read in
  non local Contribution for L=           1  read in
    real space projection operators read in
    PAW grid and wavefunctions read in
 
   number of l-projection  operators is LMAX  =           4
   number of lm-projection operators is LMMAX =           8
 
 POTCAR:   PAW_PBE C 08Apr2002                    
   VRHFIN =C: s2p2                                                              
   LEXCH  = PE                                                                  
   EATOM  =   147.1560 eV,   10.8157 Ry                                         
                                                                                
   TITEL  = PAW_PBE C 08Apr2002                                                 
   LULTRA =        F    use ultrasoft PP ?                                      
   IUNSCR =        0    unscreen: 0-lin 1-nonlin 2-no                           
   RPACOR =     .000    partial core radius                                     
   POMASS =   12.011; ZVAL   =    4.000    mass and valenz                      
   RCORE  =    1.500    outmost cutoff radius                                   
   RWIGS  =    1.630; RWIGS  =     .863    wigner-seitz radius (au A)           
   ENMAX  =  400.000; ENMIN  =  300.000 eV                                      
   ICORE  =        2    local potential                                         
   LCOR   =        T    correct aug charges                                     
   LPAW   =        T    paw PP                                                  
   EAUG   =  644.873                                                            
   DEXC   =     .000                                                            
   RMAX   =    2.266    core radius for proj-oper                               
   RAUG   =    1.300    factor for augmentation sphere                          
   RDEP   =    1.501    radius for radial grids                                 
   RDEPT  =    1.300    core radius for aug-charge                              
   QCUT   =   -5.516; QGAM   =   11.032    optimization parameters              
                                                                                
   Description                                                                  
     l     E      TYP  RCUT    TYP  RCUT                                        
     0   .000     23  1.200                                                     
     0   .000     23  1.200                                                     
     1   .000     23  1.500                                                     
     1  2.500     23  1.500                                                     
     2   .000      7  1.500                                                     
  local pseudopotential read in
  atomic valenz-charges read in
  non local Contribution for L=           0  read in
    real space projection operators read in
  non local Contribution for L=           0  read in
    real space projection operators read in
  non local Contribution for L=           1  read in
    real space projection operators read in
  non local Contribution for L=           1  read in
    real space projection operators read in
    PAW grid and wavefunctions read in
 
   number of l-projection  operators is LMAX  =           4
   number of lm-projection operators is LMMAX =           8
 
 POTCAR:   PAW_PBE H 15Jun2001                    
   VRHFIN =H: ultrasoft test                                                    
   LEXCH  = PE                                                                  
   EATOM  =    12.4884 eV,     .9179 Ry                                         
                                                                                
   TITEL  = PAW_PBE H 15Jun2001                                                 
   LULTRA =        F    use ultrasoft PP ?                                      
   IUNSCR =        0    unscreen: 0-lin 1-nonlin 2-no                           
   RPACOR =     .000    partial core radius                                     
   POMASS =    1.000; ZVAL   =    1.000    mass and valenz                      
   RCORE  =    1.100    outmost cutoff radius                                   
   RWIGS  =     .700; RWIGS  =     .370    wigner-seitz radius (au A)           
   ENMAX  =  250.000; ENMIN  =  200.000 eV                                      
   RCLOC  =     .701    cutoff for local pot                                    
   LCOR   =        T    correct aug charges                                     
   LPAW   =        T    paw PP                                                  
   EAUG   =  400.000                                                            
   RMAX   =    2.174    core radius for proj-oper                               
   RAUG   =    1.200    factor for augmentation sphere                          
   RDEP   =    1.112    radius for radial grids                                 
   QCUT   =   -5.749; QGAM   =   11.498    optimization parameters              
                                                                                
   Description                                                                  
     l     E      TYP  RCUT    TYP  RCUT                                        
     0   .000     23  1.100                                                     
     0   .500     23  1.100                                                     
     1  -.300     23  1.100                                                     
  local pseudopotential read in
  atomic valenz-charges read in
  non local Contribution for L=           0  read in
    real space projection operators read in
  non local Contribution for L=           0  read in
    real space projection operators read in
  non local Contribution for L=           1  read in
    real space projection operators read in
    PAW grid and wavefunctions read in
 
   number of l-projection  operators is LMAX  =           3
   number of lm-projection operators is LMMAX =           5
 
 Optimization of the real space projectors (new method)

 maximal supplied QI-value         = 24.76
 optimisation between [QCUT,QGAM] = [ 10.15, 20.30] = [ 28.85,115.39] Ry 
 Optimized for a Real-space Cutoff    1.51 Angstroem

   l    n(q)    QCUT    max X(q) W(low)/X(q) W(high)/X(q)  e(spline) 
   0      9    10.150     4.192    0.32E-04    0.13E-04    0.13E-06
   0      9    10.150     8.473    0.18E-03    0.20E-03    0.43E-06
   1      9    10.150     2.474    0.32E-04    0.33E-04    0.64E-07
   1      9    10.150     3.912    0.13E-03    0.16E-03    0.33E-06
 Optimization of the real space projectors (new method)

 maximal supplied QI-value         = 19.84
 optimisation between [QCUT,QGAM] = [ 10.12, 20.44] = [ 28.68,116.96] Ry 
 Optimized for a Real-space Cutoff    1.38 Angstroem

   l    n(q)    QCUT    max X(q) W(low)/X(q) W(high)/X(q)  e(spline) 
   0      8    10.119     8.708    0.16E-04    0.67E-05    0.60E-08
   0      8    10.119   106.241    0.56E-04    0.11E-03    0.54E-07
   1      8    10.119     5.901    0.16E-04    0.16E-05    0.22E-07
   1      8    10.119    73.241    0.22E-03    0.17E-03    0.18E-06
 Optimization of the real space projectors (new method)

 maximal supplied QI-value         = 19.84
 optimisation between [QCUT,QGAM] = [ 10.12, 20.44] = [ 28.68,116.96] Ry 
 Optimized for a Real-space Cutoff    1.26 Angstroem

   l    n(q)    QCUT    max X(q) W(low)/X(q) W(high)/X(q)  e(spline) 
   0      8    10.119    13.410    0.28E-04    0.17E-04    0.51E-08
   0      8    10.119   140.052    0.10E-03    0.16E-03    0.42E-07
   1      7    10.119     9.624    0.38E-04    0.42E-05    0.15E-07
   1      7    10.119    53.353    0.23E-03    0.17E-03    0.13E-06
 Optimization of the real space projectors (new method)

 maximal supplied QI-value         = 15.68
 optimisation between [QCUT,QGAM] = [ 10.20, 20.39] = [ 29.11,116.42] Ry 
 Optimized for a Real-space Cutoff    1.51 Angstroem

   l    n(q)    QCUT    max X(q) W(low)/X(q) W(high)/X(q)  e(spline) 
   2      8    10.195     3.831    0.11E-04    0.20E-04    0.48E-07
   2      8    10.195    20.184    0.23E-03    0.42E-03    0.20E-06
   0      9    10.195    16.770    0.13E-04    0.90E-05    0.63E-08
   0      9    10.195    80.708    0.19E-03    0.15E-03    0.44E-07
   1      9    10.195     6.696    0.12E-04    0.45E-04    0.30E-07
   1      9    10.195     8.973    0.12E-03    0.15E-03    0.13E-06
 Optimization of the real space projectors (new method)

 maximal supplied QI-value         = 19.84
 optimisation between [QCUT,QGAM] = [ 10.12, 20.44] = [ 28.68,116.96] Ry 
 Optimized for a Real-space Cutoff    1.42 Angstroem

   l    n(q)    QCUT    max X(q) W(low)/X(q) W(high)/X(q)  e(spline) 
   0      9    10.119     5.487    0.15E-04    0.47E-05    0.66E-08
   0      9    10.119    85.627    0.51E-04    0.92E-04    0.63E-07
   1      8    10.119     3.530    0.37E-05    0.76E-05    0.28E-07
   1      8    10.119    42.714    0.16E-03    0.16E-03    0.23E-06
 Optimization of the real space projectors (new method)

 maximal supplied QI-value         = 25.13
 optimisation between [QCUT,QGAM] = [ 10.05, 20.36] = [ 28.30,116.06] Ry 
 Optimized for a Real-space Cutoff    1.38 Angstroem

   l    n(q)    QCUT    max X(q) W(low)/X(q) W(high)/X(q)  e(spline) 
   0      8    10.053     5.582    0.33E-04    0.15E-04    0.75E-07
   0      8    10.053    69.432    0.23E-03    0.38E-03    0.25E-06
   1      8    10.053     2.780    0.76E-04    0.11E-03    0.15E-06
   1      8    10.053     4.549    0.19E-03    0.19E-03    0.27E-06
 Optimization of the real space projectors (new method)

 maximal supplied QI-value         = 34.20
 optimisation between [QCUT,QGAM] = [  9.92, 20.18] = [ 27.55,114.04] Ry 
 Optimized for a Real-space Cutoff    1.34 Angstroem

   l    n(q)    QCUT    max X(q) W(low)/X(q) W(high)/X(q)  e(spline) 
   0      8     9.919     4.436    0.31E-04    0.59E-04    0.66E-07
   0      8     9.919    16.131    0.16E-03    0.20E-03    0.35E-06
   1      8     9.919     4.654    0.19E-03    0.46E-03    0.40E-06
 PAW_PBE O 08Apr2002                    :
 energy of atom  1       EATOM= -432.3788
 kinetic energy error for atom=    0.1156 (will be added to EATOM!!)
 PAW_PBE Si 05Jan2001                   :
 energy of atom  2       EATOM= -103.0669
 kinetic energy error for atom=    0.0012 (will be added to EATOM!!)
 PAW_PBE Al 04Jan2001                   :
 energy of atom  3       EATOM=  -53.5387
 kinetic energy error for atom=    0.0005 (will be added to EATOM!!)
 PAW_PBE Ag 06Sep2000                   :
 energy of atom  4       EATOM=-1037.4134
 kinetic energy error for atom=    0.0091 (will be added to EATOM!!)
  PAW_PBE S 17Jan2003                   :
 energy of atom  5       EATOM= -276.8230
 kinetic energy error for atom=    0.0046 (will be added to EATOM!!)
 PAW_PBE C 08Apr2002                    :
 energy of atom  6       EATOM= -147.1560
 kinetic energy error for atom=    0.0288 (will be added to EATOM!!)
 PAW_PBE H 15Jun2001                    :
 energy of atom  7       EATOM=  -12.4884
 kinetic energy error for atom=    0.0098 (will be added to EATOM!!)
 
 
 POSCAR: O  C                                    
  positions in direct lattice
  velocities in cartesian coordinates
 exchange correlation table for  LEXCH =        8
   RHO(1)=    0.500       N(1)  =     2000
   RHO(2)=  100.500       N(2)  =     4000

 VTST: version 3.2, (02/03/18)

 CHAIN: initializing optimizer
 
 OPT: Using VASP Dynamics algorithm
 CHAIN: Read ICHAIN            0
 
 POSCAR: O  C                                    
  positions in direct lattice
  velocities in cartesian coordinates
 


--------------------------------------------------------------------------------------------------------


 ion  position               nearest neighbor table
   1  0.898  0.099  0.120-  73 1.63  80 1.63
   2  0.111  0.892  0.880-  79 1.62  74 1.62
   3  0.894  0.794  0.126-  83 1.61  75 1.64
   4  0.095  0.199  0.864-  76 1.63  82 1.63
   5  0.196  0.105  0.116-  77 1.63  81 1.63
   6  0.810  0.913  0.888-  78 1.59 106 1.72
   7  0.559  0.429  0.455-  84 1.62  90 1.63
   8  0.762  0.232  0.219-  89 1.59 107 1.73
   9  0.569  0.145  0.472-  85 1.65  94 1.65
  10  0.769  0.544  0.217-  93 1.63  86 1.63
  11  0.859  0.426  0.454-  92 1.63  87 1.64
  12  0.463  0.235  0.184-  88 1.63  91 1.64
  13  0.240  0.777  0.798- 102 1.61  95 1.64
  14  0.427  0.572  0.525-  96 1.66 101 1.67 110 2.55
  15  0.237  0.459  0.781-  97 1.62 105 1.62
  16  0.432  0.854  0.531-  98 1.62 108 1.79 110 2.31
  17  0.524  0.756  0.803-  99 1.64 104 1.64
  18  0.124  0.560  0.542- 103 1.64 100 1.66 110 2.55
  19  0.976  0.318  0.159-  73 1.61  89 1.63
  20  0.021  0.674  0.838- 102 1.62  74 1.63
  21  0.678  0.674  0.172-  93 1.61  75 1.62
  22  0.313  0.319  0.819- 105 1.62  76 1.63
  23  0.316  0.014  0.180-  77 1.61  91 1.63
  24  0.667  0.980  0.827- 104 1.62  78 1.62
  25  0.330  0.995  0.837-  79 1.62  95 1.63
  26  0.676  0.002  0.164-  80 1.60 107 1.74 109 2.56
  27  0.673  0.685  0.816-  99 1.60 106 1.75 111 2.37
  28  0.332  0.324  0.158-  81 1.62  88 1.62
  29  0.020  0.343  0.835-  97 1.61  82 1.62
  30  0.987  0.669  0.170-  86 1.62  83 1.62
  31  0.649  0.641  0.506- 101 1.61  84 1.62
  32  0.346  0.999  0.479-  85 1.59 108 1.71
  33  0.993  0.343  0.498- 103 1.60  87 1.63
  34  0.342  0.353  0.483-  96 1.61  90 1.63
  35  0.983  0.639  0.509- 100 1.62  92 1.62
  36  0.653  0.010  0.515-  98 1.61  94 1.63
  37  0.117  0.243  0.132-  81 1.62  73 1.62
  38  0.891  0.759  0.859-  74 1.61 106 1.76 111 2.28
  39  0.762  0.880  0.111-  80 1.60  75 1.61
  40  0.229  0.111  0.872-  76 1.61  79 1.62
  41  0.112  0.884  0.127-  77 1.61  83 1.61
  42  0.875  0.129  0.860-  82 1.61  78 1.63
  43  0.779  0.566  0.449-  84 1.60  92 1.61
  44  0.534  0.085  0.176-  91 1.62 107 1.79 109 2.31
  45  0.420  0.214  0.467-  90 1.60  85 1.63
  46  0.897  0.452  0.196-  86 1.61  89 1.63
  47  0.785  0.208  0.452-  87 1.60  94 1.63
  48  0.549  0.455  0.192-  88 1.61  93 1.62
  49  0.457  0.908  0.806- 104 1.62  95 1.63
  50  0.211  0.431  0.532-  96 1.62 103 1.62
  51  0.115  0.556  0.791-  97 1.61 102 1.61
  52  0.582  0.790  0.520- 101 1.61  98 1.64
  53  0.454  0.536  0.800- 105 1.62  99 1.63
  54  0.207  0.774  0.521- 100 1.59 108 1.75 110 2.64
  55  0.000  0.259  0.996-  82 1.61  73 1.62
  56  0.995  0.730  0.002-  74 1.62  83 1.63
  57  0.731  0.713  0.000-  75 1.59 106 1.72
  58  0.253  0.267  0.992-  76 1.63  81 1.63
  59  0.272  0.004  0.005-  79 1.63  77 1.64
  60  0.645  0.591  0.333-  84 1.61  93 1.63
  61  0.630  0.049  0.342-  94 1.60 107 1.72
  62  0.441  0.109  0.326-  91 1.61  85 1.63
  63  0.938  0.593  0.334-  92 1.62  86 1.63
  64  0.940  0.345  0.328-  87 1.62  89 1.65
  65  0.408  0.326  0.322-  90 1.62  88 1.63
  66  0.340  0.932  0.667-  95 1.59 108 1.74
  67  0.347  0.412  0.655-  96 1.62 105 1.64
  68  0.067  0.397  0.665- 103 1.62  97 1.63
  69  0.580  0.900  0.667- 104 1.61  98 1.62
  70  0.570  0.662  0.662- 101 1.61  99 1.63
  71  0.082  0.678  0.668- 100 1.63 102 1.63
  72  0.732  0.016  0.996-  78 1.67  80 1.68 109 2.47
  73  0.996  0.229  0.103-  19 1.61  37 1.62  55 1.62   1 1.63  89 3.09  81 3.09  80 3.13  82 3.14

  74  0.005  0.766  0.896-  38 1.61  56 1.62   2 1.62  20 1.63 102 3.03  83 3.10 106 3.19 111 3.28

  75  0.765  0.764  0.100-  57 1.59  39 1.61  21 1.62   3 1.64  93 3.02 106 3.03  83 3.11
  76  0.222  0.224  0.888-  40 1.61  58 1.63  22 1.63   4 1.63 105 3.07  82 3.11  81 3.12
  77  0.224  0.003  0.107-  41 1.61  23 1.61   5 1.63  59 1.64  91 3.03  79 3.07
  78  0.773  0.006  0.892-   6 1.59  24 1.62  42 1.63  72 1.67  82 3.07  80 3.08 104 3.10 106 3.20

  79  0.235  1.000  0.899-  40 1.62  25 1.62   2 1.62  59 1.63  95 3.04  77 3.07
  80  0.768  0.999  0.100-  26 1.60  39 1.60   1 1.63  72 1.68  78 3.08  73 3.13 107 3.15 109 3.17

  81  0.225  0.234  0.099-  37 1.62  28 1.62   5 1.63  58 1.63  88 3.06  73 3.09  76 3.12
  82  0.998  0.231  0.890-  55 1.61  42 1.61  29 1.62   4 1.63  97 3.05  78 3.07  76 3.11  73 3.14

  83  0.995  0.769  0.106-  41 1.61   3 1.61  30 1.62  56 1.63  86 3.04  74 3.10  75 3.11
  84  0.659  0.557  0.434-  43 1.60  60 1.61  31 1.62   7 1.62  93 3.06 101 3.06  90 3.11
  85  0.443  0.113  0.436-  32 1.59  62 1.63  45 1.63   9 1.65  94 3.02  90 3.04 108 3.09
  86  0.896  0.563  0.229-  46 1.61  30 1.62  63 1.63  10 1.63  83 3.04  92 3.06  89 3.11
  87  0.893  0.329  0.431-  47 1.60  64 1.62  33 1.63  11 1.64  89 3.04 103 3.08  92 3.12
  88  0.439  0.335  0.215-  48 1.61  28 1.62  12 1.63  65 1.63  81 3.06  91 3.07  93 3.11
  89  0.889  0.333  0.225-   8 1.59  19 1.63  46 1.63  64 1.65  87 3.04  73 3.09  86 3.11 107 3.24

  90  0.432  0.330  0.430-  45 1.60  65 1.62  34 1.63   7 1.63  85 3.04  96 3.07  84 3.11
  91  0.439  0.111  0.217-  62 1.61  44 1.62  23 1.63  12 1.64  77 3.03 107 3.07  88 3.07
  92  0.890  0.556  0.436-  43 1.61  63 1.62  35 1.62  11 1.63  86 3.06 100 3.08  87 3.12
  93  0.662  0.566  0.228-  21 1.61  48 1.62  60 1.63  10 1.63  75 3.02  84 3.06  88 3.11
  94  0.658  0.102  0.442-  61 1.60  47 1.63  36 1.63   9 1.65  85 3.02  98 3.04 107 3.11
  95  0.341  0.905  0.772-  66 1.59  49 1.63  25 1.63  13 1.64  79 3.04 104 3.09 102 3.11 108 3.23

  96  0.332  0.440  0.551-  34 1.61  50 1.62  67 1.62  14 1.66  90 3.07 101 3.11
  97  0.110  0.439  0.768-  51 1.61  29 1.61  15 1.62  68 1.63  82 3.05 103 3.08
  98  0.561  0.891  0.558-  36 1.61  69 1.62  16 1.62  52 1.64 101 3.03  94 3.04 108 3.19 110 3.36

  99  0.556  0.661  0.772-  27 1.60  70 1.63  53 1.63  17 1.64 104 3.06 105 3.07 106 3.17
 100  0.099  0.666  0.560-  54 1.59  35 1.62  71 1.63  18 1.66  92 3.08 102 3.15 108 3.16 110 3.25

 101  0.559  0.668  0.554-  70 1.61  31 1.61  52 1.61  14 1.67  98 3.03  84 3.06  96 3.11
 102  0.117  0.674  0.773-  13 1.61  51 1.61  20 1.62  71 1.63  74 3.03  95 3.11 100 3.15
 103  0.097  0.431  0.560-  33 1.60  68 1.62  50 1.62  18 1.64  87 3.08  97 3.08
 104  0.556  0.885  0.775-  69 1.61  49 1.62  24 1.62  17 1.64  99 3.06  95 3.09  78 3.10
 105  0.337  0.431  0.764-  53 1.62  22 1.62  15 1.62  67 1.64  76 3.07  99 3.07
 106  0.775  0.773  0.895-  57 1.72   6 1.72  27 1.75  38 1.76 111 3.00  75 3.03  99 3.17  74 3.19
                            78 3.20
 107  0.654  0.094  0.231-  61 1.72   8 1.73  26 1.74  44 1.79  91 3.07 109 3.10  94 3.11  80 3.15
                            89 3.24
 108  0.331  0.897  0.553-  32 1.71  66 1.74  54 1.75  16 1.79  85 3.09 100 3.16  98 3.19 110 3.21
                            95 3.23
 109  0.561  0.025  0.037-  44 2.31  72 2.47  26 2.56 107 3.10  80 3.17
 110  0.322  0.673  0.476-  16 2.31  14 2.55  18 2.55  54 2.64 108 3.21 100 3.25  98 3.36
 111  0.786  0.610  0.766-  38 2.28 112 2.31  27 2.37 106 3.00  74 3.28
 112  0.766  0.487  0.651- 113 1.80 114 1.81 111 2.31
 113  0.859  0.432  0.671- 117 1.09 115 1.09 116 1.09 112 1.80
 114  0.626  0.364  0.652- 120 1.09 118 1.09 119 1.10 112 1.81
 115  0.879  0.408  0.606- 113 1.09
 116  0.824  0.361  0.718- 113 1.09
 117  0.935  0.502  0.700- 113 1.09
 118  0.626  0.296  0.692- 114 1.09
 119  0.569  0.388  0.683- 114 1.10
 120  0.601  0.336  0.582- 114 1.09
 
  LATTYP: Found a hexagonal cell.
 ALAT       =    13.6750001907
 C/A-ratio  =     1.0798537472
  
  Lattice vectors:
  
 A1 = (  13.6750001907,   0.0000000000,   0.0000000000)
 A2 = (  -6.8375000954,  11.8428975619,   0.0000000000)
 A3 = (   0.0000000000,   0.0000000000,  14.7670001984)


Analysis of symmetry for initial positions (statically):
=====================================================================
 Subroutine PRICEL returns:
 Original cell was already a primitive cell.
 

 Routine SETGRP: Setting up the symmetry group for a 
 hexagonal supercell.


 Subroutine GETGRP returns: Found  1 space group operations
 (whereof  1 operations were pure point group operations)
 out of a pool of 24 trial point group operations.


The static configuration has the point symmetry C_1 .


Analysis of symmetry for dynamics (positions and initial velocities):
=====================================================================
 Subroutine PRICEL returns:
 Original cell was already a primitive cell.
 

 Routine SETGRP: Setting up the symmetry group for a 
 hexagonal supercell.


 Subroutine GETGRP returns: Found  1 space group operations
 (whereof  1 operations were pure point group operations)
 out of a pool of 24 trial point group operations.


The dynamic configuration has the point symmetry C_1 .


Analysis of structural, dynamic, and magnetic symmetry:
=====================================================================
 Subroutine PRICEL returns:
 Original cell was already a primitive cell.
 

 Routine SETGRP: Setting up the symmetry group for a 
 hexagonal supercell.


 Subroutine GETGRP returns: Found  1 space group operations
 (whereof  1 operations were pure point group operations)
 out of a pool of 24 trial point group operations.


The magnetic configuration has the point symmetry C_1 .


 Subroutine INISYM returns: Found  1 space group operations
 (whereof  1 operations are pure point group operations),
 and found     1 'primitive' translations

 
 
 KPOINTS: Gamma points only                       
  k-points in reciprocal lattice
Space group operators:
 irot       det(A)        alpha          n_x          n_y          n_z        tau_x        tau_y        tau_z
    1     1.000000     0.000000     1.000000     0.000000     0.000000     0.000000     0.000000     0.000000

 ----------------------------------------------------------------------------- 
|                                                                             |
|           W    W    AA    RRRRR   N    N  II  N    N   GGGG   !!!           |
|           W    W   A  A   R    R  NN   N  II  NN   N  G    G  !!!           |
|           W    W  A    A  R    R  N N  N  II  N N  N  G       !!!           |
|           W WW W  AAAAAA  RRRRR   N  N N  II  N  N N  G  GGG   !            |
|           WW  WW  A    A  R   R   N   NN  II  N   NN  G    G                |
|           W    W  A    A  R    R  N    N  II  N    N   GGGG   !!!           |
|                                                                             |
|      Your generating k-point grid is not commensurate to the symmetry       |
|      of the lattice.  This can cause   slow convergence with respect        |
|      to k-points for HF type calculations                                   |
|      suggested SOLUTIONS:                                                   |
|       ) if not already the case, use automatic k-point generation           |
|       ) shift your grid to Gamma (G) (e.g. required for hex or fcc lattice) |
|                                                                             |
 ----------------------------------------------------------------------------- 

 
 Subroutine IBZKPT_HF returns following result:
 ==============================================
 
 Found      1 k-points in 1st BZ
 the following      1 k-points will be used (e.g. in the exchange kernel)
 Following reciprocal coordinates:   # in IRBZ
  0.000000  0.000000  0.000000    1.00000000   1 t-inv F


--------------------------------------------------------------------------------------------------------




 Dimension of arrays:
   k-points           NKPTS =      1   k-points in BZ     NKDIM =      1   number of bands    NBANDS=    436
   number of dos      NEDOS =    301   number of ions     NIONS =    120
   non local maximal  LDIM  =      6   non local SUM 2l+1 LMDIM =     18
   total plane-waves  NPLWV = 777600
   max r-space proj   IRMAX =   4725   max aug-charges    IRDMAX= 128081
   dimension x,y,z NGX =    90 NGY =   90 NGZ =   96
   dimension x,y,z NGXF=   180 NGYF=  180 NGZF=  192
   support grid    NGXF=   360 NGYF=  360 NGZF=  384
   ions per type =              72  33   3   3   1   2   6
   NGX,Y,Z   is equivalent  to a cutoff of  10.94, 10.94, 10.81 a.u.
   NGXF,Y,Z  is equivalent  to a cutoff of  21.88, 21.88, 21.62 a.u.

 SYSTEM =  SiO2                                    
 POSCAR =  O  C                                    

 Startparameter for this run:
   NWRITE =      2    write-flag & timer
   PREC   = acc       normal or accurate (medium, high low for compatibility)
   ISTART =      0    job   : 0-new  1-cont  2-samecut
   ICHARG =      2    charge: 1-file 2-atom 10-const
   ISPIN  =      2    spin polarized calculation?
   LNONCOLLINEAR =      F non collinear calculations
   LSORBIT =      F    spin-orbit coupling
   INIWAV =      1    electr: 0-lowe 1-rand  2-diag
   LASPH  =      F    aspherical Exc in radial PAW
   METAGGA=      F    non-selfconsistent MetaGGA calc.

 Electronic Relaxation 1
   ENCUT  =  400.0 eV  29.40 Ry    5.42 a.u.  22.30 22.30 24.08*2*pi/ulx,y,z
   ENINI  =  400.0     initial cutoff
   ENAUG  =  644.9 eV  augmentation charge cutoff
   NELM   =    100;   NELMIN=  2; NELMDL= -5     # of ELM steps 
   EDIFF  = 0.1E-04   stopping-criterion for ELM
   LREAL  =      T    real-space projection
   NLSPLINE    = F    spline interpolate recip. space projectors
   LCOMPAT=      F    compatible to vasp.4.4
   GGA_COMPAT  = T    GGA compatible to vasp.4.4-vasp.4.6
   LMAXPAW     = -100 max onsite density
   LMAXMIX     =    2 max onsite mixed and CHGCAR
   VOSKOWN=      0    Vosko Wilk Nusair interpolation
   ROPT   =   -0.00025  -0.00025  -0.00025  -0.00025
   ROPT   =   -0.00025  -0.00025  -0.00025
 Ionic relaxation
   EDIFFG = 0.1E-03   stopping-criterion for IOM
   NSW    =      0    number of steps for IOM
   NBLOCK =      1;   KBLOCK =      1    inner block; outer block 
   IBRION =     -1    ionic relax: 0-MD 1-quasi-New 2-CG
   NFREE  =      0    steps in history (QN), initial steepest desc. (CG)
   ISIF   =      0    stress and relaxation
   IWAVPR =     10    prediction:  0-non 1-charg 2-wave 3-comb
   ISYM   =      3    0-nonsym 1-usesym 2-fastsym
   LCORR  =      T    Harris-Foulkes like correction to forces

   POTIM  = 0.5000    time-step for ionic-motion
   TEIN   =    0.0    initial temperature
   TEBEG  =    0.0;   TEEND  =   0.0 temperature during run
   SMASS  =  -3.00    Nose mass-parameter (am)
   estimated Nose-frequenzy (Omega)   =  0.10E-29 period in steps =****** mass=  -0.427E-26a.u.
   SCALEE = 1.0000    scale energy and forces
   NPACO  =    256;   APACO  = 16.0  distance and # of slots for P.C.
   PSTRESS=    0.0 pullay stress

  Mass of Ions in am
   POMASS =  16.00 28.09 26.98107.87 32.07 12.01  1.00
  Ionic Valenz
   ZVAL   =   6.00  4.00  3.00 11.00  6.00  4.00  1.00
  Atomic Wigner-Seitz radii
   RWIGS  =  -1.00 -1.00 -1.00 -1.00 -1.00 -1.00 -1.00
  virtual crystal weights 
   VCA    =   1.00  1.00  1.00  1.00  1.00  1.00  1.00
   NELECT =     626.0000    total number of electrons
   NUPDOWN=      -1.0000    fix difference up-down

 DOS related values:
   EMIN   =  10.00;   EMAX   =-10.00  energy-range for DOS
   EFERMI =   0.00
   ISMEAR =     0;   SIGMA  =   0.05  broadening in eV -4-tet -1-fermi 0-gaus

 Electronic relaxation 2 (details)
   IALGO  =     38    algorithm
   LDIAG  =      T    sub-space diagonalisation (order eigenvalues)
   LSUBROT=      F    optimize rotation matrix (better conditioning)
   TURBO    =      0    0=normal 1=particle mesh
   IRESTART =      0    0=no restart 2=restart with 2 vectors
   NREBOOT  =      0    no. of reboots
   NMIN     =      0    reboot dimension
   EREF     =   0.00    reference energy to select bands
   IMIX   =      1    mixing-type and parameters
     AMIX     =   0.40;   BMIX     =  1.00
     AMIX_MAG =   1.60;   BMIX_MAG =  1.00
     AMIN     =   0.10
     WC   =   100.;   INIMIX=   1;  MIXPRE=   1;  MAXMIX= -45

 Intra band minimization:
   WEIMIN = 0.0000     energy-eigenvalue tresh-hold
   EBREAK =  0.57E-08  absolut break condition
   DEPER  =   0.30     relativ break condition  

   TIME   =   0.40     timestep for ELM

  volume/ion in A,a.u.               =      19.93       134.49
  Fermi-wavevector in a.u.,A,eV,Ry     =   1.047226  1.978970 14.921268  1.096682
  Thomas-Fermi vector in A             =   2.182097
 
 Write flags
   LWAVE        =      F    write WAVECAR
   LDOWNSAMPLE  =      F    k-point downsampling of WAVECAR
   LCHARG       =      F    write CHGCAR
   LVTOT        =      F    write LOCPOT, total local potential
   LVHAR        =      F    write LOCPOT, Hartree potential only
   LELF         =      F    write electronic localiz. function (ELF)
   LORBIT       =     11    0 simple, 1 ext, 2 COOP (PROOUT), +10 PAW based schemes


 Dipole corrections
   LMONO  =      F    monopole corrections only (constant potential shift)
   LDIPOL =      F    correct potential (dipole corrections)
   IDIPOL =      0    1-x, 2-y, 3-z, 4-all directions 
   EPSILON=  1.0000000 bulk dielectric constant

 Exchange correlation treatment:
   GGA     =    PE    GGA type
   LEXCH   =     8    internal setting for exchange type
   VOSKOWN=      0    Vosko Wilk Nusair interpolation
   EXXOEP  =     0    0=HF, 1=EXX-LHF (local Hartree Fock) 2=EXX OEP
   LHFCALC =     T    Hartree Fock is set to
   LSYMGRAD=     F    symmetrize gradient (conserves proper symmetry)
   PRECFOCK=normal    Normal, Fast or Accurate (Low or Medium for compatibility)
   LRHFCALC=     F    long range Hartree Fock
   LRSCOR  =     F    long range correlation only (use DFT for short range part)
   LTHOMAS =     F    Thomas Fermi screening in HF
   LMODELHF=     F    short range full HF, long range fraction AEXX
   ENCUT4O =  -1.0   cutoff for four orbital integrals eV
   LMAXFOCK=     4    L truncation for augmentation on plane wave grid
   LMAXFOCKAE=  -1    L truncation for all-electron charge restoration on plane wave grid
   NMAXFOCKAE=   1    number of basis functions for all-electron charge restoration
   LFOCKAEDFT=     F  apply the AE augmentation even for DFT
   NKREDX  =     1    reduce k-point grid by
   NKREDY  =     1    reduce k-point grid by
   NKREDZ  =     1    reduce k-point grid by
   SHIFTRED=     F    shift reduced grid of Gamma
   HFKIDENT=     F    idential grid for each k-point
   ODDONLY =     F    use only odd q-grid points
   EVENONLY=     F    use only even q-grid points
   HFALPHA =   -1.0000 decay constant for conv. correction
   MCALPHA =    0.0000 extent of test-charge in conv. correction in multipole expansion
   AEXX    =    0.2500 exact exchange contribution
   HFSCREEN=    0.2000 screening length (either q_TF or 0.3 A-1)
   HFSCREENC=   0.2000 screening length for correlation (either q_TF or 0.3 A-1)
   HFRCUT  =    0.0000 spherical cutoff for potential kernel
   ALDAX   =    0.7500 LDA exchange part
   AGGAX   =    0.7500 GGA exchange part
   ALDAC   =    1.0000 LDA correlation
   AGGAC   =    1.0000 GGA correlation
   ENCUTFOCK=  -1.0 apply spherical cutoff to Coloumb kernel
   NBANDSGWLOW=     1    first orbital included in HF term
   NBLOCK_FOCK=    64    blocking factor in FOCK_ACC
 Linear response parameters
   LEPSILON=     F    determine dielectric tensor
   LRPA    =     F    only Hartree local field effects (RPA)
   LNABLA  =     F    use nabla operator in PAW spheres
   LVEL    =     F    velocity operator in full k-point grid
   LINTERFAST=   F  fast interpolation
   KINTER  =     0    interpolate to denser k-point grid
   CSHIFT  =0.1000    complex shift for real part using Kramers Kronig
   OMEGAMAX=  -1.0    maximum frequency
   DEG_THRESHOLD= 0.2000000E-02 threshold for treating states as degnerate
   RTIME   =   -0.100 relaxation time in fs
  (WPLASMAI=    0.000 imaginary part of plasma frequency in eV, 0.658/RTIME)
   DFIELD  = 0.0000000 0.0000000 0.0000000 field for delta impulse in time
 
 Orbital magnetization related:
   ORBITALMAG=     F  switch on orbital magnetization
   LCHIMAG   =     F  perturbation theory with respect to B field
   DQ        =  0.001000  dq finite difference perturbation B field
   LLRAUG    =     F  two centre corrections for induced B field



--------------------------------------------------------------------------------------------------------


 Static calculation
 charge density and potential will be updated during run
 spin polarized calculation
 Variant of blocked Davidson
 Davidson routine will perform the subspace rotation
 perform sub-space diagonalisation
    after iterative eigenvector-optimisation
 Kerker-like  mixing scheme
 using additional bands          123
 real space projection scheme for non local part
 use partial core corrections
 calculate Harris-corrections to forces 
   (improved forces if not selfconsistent)
 use gradient corrections 
 use of overlap-Matrix (Vanderbilt PP)
 Gauss-broadening in eV      SIGMA  =   0.05


--------------------------------------------------------------------------------------------------------


  energy-cutoff  :      400.00
  volume of cell :     2391.54
      direct lattice vectors                 reciprocal lattice vectors
    13.675000191  0.000000000  0.000000000     0.073126142  0.042219398  0.000000000
    -6.837500095 11.842897562  0.000000000     0.000000000  0.084438795  0.000000000
     0.000000000  0.000000000 14.767000198     0.000000000  0.000000000  0.067718561

  length of vectors
    13.675000191 13.675000191 14.767000198     0.084438795  0.084438795  0.067718561


 
 k-points in units of 2pi/SCALE and weight: Gamma points only                       
   0.00000000  0.00000000  0.00000000       1.000
 
 k-points in reciprocal lattice and weights: Gamma points only                       
   0.00000000  0.00000000  0.00000000       1.000
 
 position of ions in fractional coordinates (direct lattice) 
   0.89760131  0.09863956  0.12012394
   0.11122517  0.89156531  0.88042856
   0.89352341  0.79362963  0.12614190
   0.09464992  0.19870430  0.86417689
   0.19622018  0.10488960  0.11580953
   0.81036825  0.91305892  0.88821821
   0.55926984  0.42877434  0.45516147
   0.76245459  0.23220616  0.21906944
   0.56916299  0.14452741  0.47188288
   0.76853285  0.54426680  0.21741240
   0.85937463  0.42570723  0.45410771
   0.46302159  0.23473603  0.18369688
   0.24002457  0.77708496  0.79764893
   0.42707957  0.57238115  0.52530013
   0.23683279  0.45910182  0.78135523
   0.43239378  0.85395835  0.53125484
   0.52387426  0.75635939  0.80316957
   0.12361867  0.56011439  0.54217786
   0.97600237  0.31765666  0.15915534
   0.02141668  0.67356104  0.83754790
   0.67787013  0.67401484  0.17247357
   0.31270864  0.31867875  0.81899612
   0.31646327  0.01443525  0.18017660
   0.66713753  0.97958589  0.82695494
   0.33006535  0.99534852  0.83669791
   0.67558575  0.00214273  0.16387667
   0.67264075  0.68485352  0.81640318
   0.33241049  0.32428305  0.15756392
   0.02000433  0.34289607  0.83503473
   0.98679019  0.66932590  0.16950957
   0.64888382  0.64137316  0.50607352
   0.34557538  0.99897123  0.47901769
   0.99345945  0.34251141  0.49811599
   0.34151142  0.35338431  0.48269786
   0.98333983  0.63861076  0.50903213
   0.65289087  0.01003374  0.51531658
   0.11673885  0.24301905  0.13216012
   0.89055626  0.75929134  0.85906744
   0.76217816  0.87979154  0.11067939
   0.22873458  0.11113932  0.87214639
   0.11207923  0.88389175  0.12735327
   0.87512579  0.12912882  0.85999778
   0.77939817  0.56646296  0.44884453
   0.53401366  0.08525674  0.17562443
   0.41950509  0.21403341  0.46741676
   0.89716167  0.45178442  0.19606499
   0.78531674  0.20810983  0.45179105
   0.54903808  0.45467593  0.19169784
   0.45653584  0.90827660  0.80571773
   0.21128562  0.43095072  0.53180889
   0.11516149  0.55610481  0.79061557
   0.58240585  0.78986412  0.52037229
   0.45449937  0.53602195  0.80037452
   0.20699411  0.77431810  0.52063121
   0.00016915  0.25905178  0.99596479
   0.99498452  0.73025242  0.00160144
   0.73060995  0.71299291  0.00000244
   0.25284410  0.26744103  0.99211959
   0.27202813  0.00428823  0.00473728
   0.64545025  0.59108645  0.33251208
   0.63001629  0.04887974  0.34237635
   0.44128363  0.10856270  0.32611670
   0.93802994  0.59321697  0.33382828
   0.94011216  0.34510355  0.32819608
   0.40761214  0.32615491  0.32187962
   0.34006309  0.93197715  0.66710624
   0.34653944  0.41181949  0.65535416
   0.06703570  0.39703959  0.66539243
   0.57953201  0.90023599  0.66707128
   0.56962884  0.66224667  0.66225187
   0.08197911  0.67782492  0.66798593
   0.73158781  0.01623372  0.99556064
   0.99611378  0.22861562  0.10261585
   0.00460858  0.76552570  0.89589778
   0.76547363  0.76409257  0.09955523
   0.22161141  0.22386378  0.88801287
   0.22367550  0.00255110  0.10669185
   0.77326181  0.00613043  0.89173394
   0.23496816  0.99986651  0.89890196
   0.76834698  0.99908051  0.10011052
   0.22462265  0.23409970  0.09893625
   0.99784359  0.23068167  0.88969408
   0.99546710  0.76937868  0.10561953
   0.65881631  0.55693650  0.43440373
   0.44258226  0.11260579  0.43623425
   0.89572423  0.56348253  0.22889363
   0.89281773  0.32897939  0.43064284
   0.43859948  0.33472710  0.21451395
   0.88948839  0.33317547  0.22516048
   0.43188082  0.32959813  0.42950134
   0.43933402  0.11071662  0.21728335
   0.89034198  0.55563950  0.43578745
   0.66200092  0.56565099  0.22752440
   0.65759417  0.10172974  0.44189934
   0.34113625  0.90453835  0.77176940
   0.33209331  0.43991168  0.55095281
   0.11043228  0.43872747  0.76848349
   0.56119855  0.89066949  0.55828089
   0.55598215  0.66105990  0.77186815
   0.09914554  0.66606502  0.56012092
   0.55880986  0.66771420  0.55433782
   0.11705415  0.67350438  0.77283572
   0.09651910  0.43072677  0.55995147
   0.55625288  0.88479849  0.77457990
   0.33731820  0.43107506  0.76398465
   0.77505631  0.77328210  0.89487757
   0.65431023  0.09414093  0.23144018
   0.33067219  0.89659172  0.55328107
   0.56098429  0.02506910  0.03675702
   0.32193888  0.67337578  0.47589439
   0.78613935  0.60952296  0.76599247
   0.76577022  0.48677536  0.65073296
   0.85906366  0.43213864  0.67111874
   0.62632266  0.36359125  0.65190604
   0.87887340  0.40838781  0.60590903
   0.82425900  0.36099806  0.71831360
   0.93549753  0.50245928  0.69959009
   0.62649783  0.29634795  0.69199522
   0.56900626  0.38839889  0.68256480
   0.60103948  0.33623680  0.58194219
 
 position of ions in cartesian coordinates  (Angst):
  11.60025007  1.16817815  1.77387019
  -4.57507368 10.55871664 13.00128870
   6.79249012  9.39887444  1.86273742
  -0.06430306  2.35323468 12.76130027
   1.96612831  1.24219679  1.71015931
   4.83874554 10.81326330 13.11631855
   4.71627061  5.07793060  6.72136959
   8.83885694  2.74999380  3.23499841
   6.79509780  1.71162327  6.96829454
   6.78826258  6.44569591  3.21052896
   8.84117497  5.04160709  6.70580859
   4.72681274  2.77995472  2.71265189
  -2.03098249  9.20293760 11.77888189
   1.92665701  6.77865128  7.75710714
   0.09957970  5.43709577 11.53827280
   0.07404473 10.11334131  7.84504034
   1.99237313  8.95748680 11.86040519
  -2.13929681  6.63337735  8.00634056
  11.17485514  3.76197533  2.35024701
  -4.31260058  7.97691445 12.36807006
   4.66129765  7.98228868  2.54691717
   2.09732464  3.77407983 12.09411590
   4.22893429  0.17095515  2.66066786
   2.42518718 11.60113538 12.21164379
  -2.29205187 11.78781059 12.35551823
   9.22398436  0.02537614  2.41996684
   4.51567644  8.11065006 12.05582590
   2.32842805  3.84045097  2.32674638
  -2.07099273  4.06088306 12.33095797
   8.91784009  7.92675807  2.50314784
   4.48809727  7.59571662  7.47318784
  -2.10472253 11.83071393  7.07365429
  11.24363635  4.05632755  7.35567899
   2.25390349  4.18509418  7.12799945
   9.08067125  7.56300186  7.51687762
   8.85967709  0.11882853  7.60968009
  -0.06523901  2.87804977  1.95160857
   6.98670251  8.99220952 12.68584913
   4.40721174 10.41928113  1.63440261
   2.36803036  1.31621154 12.87898597
  -4.51092650 10.46783948  1.88062582
  11.08442697  1.52925943 12.69958733
   6.78507966  6.70856276  6.62808726
   6.71969397  1.00968680  2.59344606
   4.27327873  2.53477577  6.90234333
   9.17961004  5.35043661  2.89529171
   9.31625557  2.46462335  6.67159850
   4.39924910  5.38468042  2.83080202
   0.03278633 10.75662673 11.89803395
  -0.05729463  5.10370523  7.85322201
  -2.22753322  6.58589226 11.67502023
   2.56370407  9.35427986  7.68433764
   2.55022884  6.34805307 11.81913074
  -2.46375565  9.17016999  7.68816117
  -1.76895336  3.06792366 14.70741224
   8.61331253  8.64830458  0.02364847
   5.11600216  8.44390202  0.00003600
   1.62901501  3.16727673 14.65063025
   3.69066390  0.05078507  0.06995542
   4.78497859  7.00017632  4.91020588
   8.28125763  0.57887771  5.05587165
   5.29225620  1.28569698  4.81576532
   8.77143849  7.02540779  4.92964221
  10.49638842  4.08702598  4.84647160
   3.34401180  3.86261922  4.75319644
  -1.72203095 11.03730989  9.85115794
   1.92311115  4.87713604  9.67761494
  -1.79804500  4.70209922  9.82585016
   1.76973664 10.66140259  9.85064169
   3.26156289  7.84291943  9.77947345
  -3.51356367  8.02741108  9.86414838
   9.89346531  0.19225430 14.70144423
  12.05869682  2.70747142  1.51532829
  -5.17125971  9.06604246 13.22972264
   5.24336901  9.04906999  1.47013204
   1.49986737  2.65119587 13.11328620
   3.04131944  0.03021237  1.57551855
  10.53243856  0.07260201 13.16823533
  -3.62339768 11.84131663 13.27408544
   3.67593208 11.83200809  1.47833202
   1.47105811  2.77241877  1.46099158
  12.06822539  2.73193938 13.13811259
   8.35238606  9.11167284  1.55968362
   5.20125981  6.59574193  6.41484000
   5.28237043  1.33357879  6.44187130
   8.39621716  6.67326592  3.38007234
   9.95988598  3.89606927  6.35930294
   3.70915137  3.96413876  3.16772750
   9.88566660  3.94576297  3.32494478
   3.65234301  3.90339693  6.34244638
   5.25086798  1.31120556  3.20862331
   8.37624168  6.58038162  6.43527339
   5.18522398  6.69894668  3.35985282
   8.29702328  1.20477486  6.52552758
  -1.51974270 10.71235497 11.39671895
   1.53347997  5.20982895  8.13592028
  -1.48963773  5.19580453 11.34819579
   1.58443750 10.54810754  8.24413402
   3.08305889  7.82886471 11.39817705
  -3.19840438  7.88813980  8.27130578
   3.07622897  7.90767088  8.18590671
  -3.00437067  7.97624334 11.41246522
  -1.62519557  5.10105300  8.26880352
   1.55694850 10.47857791 11.43822156
   1.66535074  5.10517777 11.28176154
   5.31157877  9.15790069 13.21465731
   8.30400381  1.11490143  3.41767717
  -1.60850374 10.61824391  8.17030164
   7.50005029  0.29689080  0.54279088
  -0.20169264  7.97472037  7.02753261
   6.58284242  7.21851798 11.31141095
   7.14358129  5.76483076  9.60937374
   8.79294771  5.11777362  9.91041054
   6.07890732  4.30597398  9.62669669
   9.22624225  4.83649502  8.94745869
   8.80341770  4.27526307 10.60733704
   9.35736353  5.95057380 10.33084695
   6.54107878  3.50961842 10.21869361
   5.12548332  4.59976826 10.07943447
   5.92019586  3.98201802  8.59354042
 


--------------------------------------------------------------------------------------------------------


 k-point  1 :   0.0000 0.0000 0.0000  plane waves:   43405

 maximum and minimum number of plane-waves per node :     10852    10850

 maximum number of plane-waves:     43405
 maximum index in each direction: 
   IXMAX=   22   IYMAX=   22   IZMAX=   24
   IXMIN=  -22   IYMIN=  -22   IZMIN=  -24


 real space projection operators:
  total allocation   :      31410.52 KBytes
  max/ min on nodes  :       8028.82       7671.84


 parallel 3D FFT for wavefunctions:
    minimum data exchange during FFTs selected (reduces bandwidth)
 parallel 3D FFT for charge:
    minimum data exchange during FFTs selected (reduces bandwidth)


 FFT grid for exact exchange (Hartree Fock) 
  NGX = 70; NGY = 70; NGZ = 80

 
 Radii for the augmentation spheres in the non-local exchange
 for species   1 augmentation radius   0.820 (default was   0.722)
       energy cutoff for augmentation   1600.0
 for species   2 augmentation radius   1.055 (default was   0.989)
       energy cutoff for augmentation   1600.0
 for species   3 augmentation radius   1.041 (default was   1.041)
       energy cutoff for augmentation   1600.0
 for species   4 augmentation radius   1.279 (default was   1.125)
       energy cutoff for augmentation   1600.0
 for species   5 augmentation radius   1.034 (default was   0.970)
       energy cutoff for augmentation   1600.0
 for species   6 augmentation radius   0.795 (default was   0.699)
       energy cutoff for augmentation   1600.0
 for species   7 augmentation radius   0.588 (default was   0.520)
       energy cutoff for augmentation   1600.0

 real space projection operators:
  total allocation   :       4938.17 KBytes
  max/ min on nodes  :       1264.26       1207.15

 Maximum index for augmentation-charges in exchange          370
  SETUP_FOCK is finished

 total amount of memory used by VASP MPI-rank0   230071. kBytes
=======================================================================

   base      :      30000. kBytes
   nonlr-proj:      24070. kBytes
   fftplans  :      69849. kBytes
   grid      :      66179. kBytes
   one-center:        933. kBytes
   HF        :        324. kBytes
   wavefun   :      38716. kBytes
 
     INWAV:  cpu time    0.0001: real time    0.0002
 initial charge density was supplied:
 charge density of overlapping atoms calculated
 number of electron     626.0000000 magnetization     120.0000000
 keeping initial charge density in first step


--------------------------------------------------------------------------------------------------------


 Maximum index for non-local projection operator         1301
 Maximum index for augmentation-charges         7866 (set IRDMAX)


--------------------------------------------------------------------------------------------------------


 First call to EWALD:  gamma=   0.133
 Maximum number of real-space cells 3x 3x 3
 Maximum number of reciprocal cells 3x 3x 3

    FEWALD:  cpu time    0.0074: real time    0.0074


--------------------------------------- Iteration      1(   1)  ---------------------------------------


    POTLOK:  cpu time    1.9315: real time    1.9515
    SETDIJ:  cpu time    0.8721: real time    0.8763
     EDDAV:  cpu time   20.5527: real time   20.6194
       DOS:  cpu time    0.0009: real time    0.0009
    --------------------------------------------
      LOOP:  cpu time   23.3572: real time   23.4482

 eigenvalue-minimisations  :  1752
 total energy-change (2. order) : 0.5403721E+04  (-0.2500989E+05)
 number of electron     626.0000000 magnetization     120.0000000
 augmentation part      626.0000000 magnetization     120.0000000

 Free energy of the ion-electron system (eV)
  ---------------------------------------------------
  alpha Z        PSCENC =       656.05789364
  Ewald energy   TEWEN  =     -6494.01814748
  -Hartree energ DENC   =    -28606.54144105
  -exchange      EXHF   =         0.00000000
  -V(xc)+E(xc)   XCENC  =      1270.09708176
  PAW double counting   =     22005.73466084   -21439.66778422
  entropy T*S    EENTRO =        -0.05100157
  eigenvalues    EBANDS =       -48.61471423
  atomic energy  EATOM  =     38060.72444142
  Solvation  Ediel_sol  =         0.00000000
  ---------------------------------------------------
  free energy    TOTEN  =      5403.72098911 eV

  energy without entropy =     5403.77199068  energy(sigma->0) =     5403.74648990
  exchange ACFDT corr.  =         0.00000000  see jH, gK, PRB 81, 115126


--------------------------------------------------------------------------------------------------------




--------------------------------------- Iteration      1(   2)  ---------------------------------------


     EDDAV:  cpu time   24.7114: real time   24.7932
       DOS:  cpu time    0.0004: real time    0.0004
    --------------------------------------------
      LOOP:  cpu time   24.7118: real time   24.7937

 eigenvalue-minimisations  :  2140
 total energy-change (2. order) :-0.4369221E+04  (-0.4101115E+04)
 number of electron     626.0000000 magnetization     120.0000000
 augmentation part      626.0000000 magnetization     120.0000000

 Free energy of the ion-electron system (eV)
  ---------------------------------------------------
  alpha Z        PSCENC =       656.05789364
  Ewald energy   TEWEN  =     -6494.01814748
  -Hartree energ DENC   =    -28606.54144105
  -exchange      EXHF   =         0.00000000
  -V(xc)+E(xc)   XCENC  =      1270.09708176
  PAW double counting   =     22005.73466084   -21439.66778422
  entropy T*S    EENTRO =        -0.00000000
  eigenvalues    EBANDS =     -4417.88693257
  atomic energy  EATOM  =     38060.72444142
  Solvation  Ediel_sol  =         0.00000000
  ---------------------------------------------------
  free energy    TOTEN  =      1034.49977234 eV

  energy without entropy =     1034.49977234  energy(sigma->0) =     1034.49977234
  exchange ACFDT corr.  =         0.00000000  see jH, gK, PRB 81, 115126


--------------------------------------------------------------------------------------------------------




--------------------------------------- Iteration      1(   3)  ---------------------------------------


     EDDAV:  cpu time   26.6078: real time   26.6783
       DOS:  cpu time    0.0004: real time    0.0004
    --------------------------------------------
      LOOP:  cpu time   26.6082: real time   26.6787

 eigenvalue-minimisations  :  2088
 total energy-change (2. order) :-0.5087242E+03  (-0.5044097E+03)
 number of electron     626.0000000 magnetization     120.0000000
 augmentation part      626.0000000 magnetization     120.0000000

 Free energy of the ion-electron system (eV)
  ---------------------------------------------------
  alpha Z        PSCENC =       656.05789364
  Ewald energy   TEWEN  =     -6494.01814748
  -Hartree energ DENC   =    -28606.54144105
  -exchange      EXHF   =         0.00000000
  -V(xc)+E(xc)   XCENC  =      1270.09708176
  PAW double counting   =     22005.73466084   -21439.66778422
  entropy T*S    EENTRO =        -0.00000000
  eigenvalues    EBANDS =     -4926.61114223
  atomic energy  EATOM  =     38060.72444142
  Solvation  Ediel_sol  =         0.00000000
  ---------------------------------------------------
  free energy    TOTEN  =       525.77556269 eV

  energy without entropy =      525.77556269  energy(sigma->0) =      525.77556269
  exchange ACFDT corr.  =         0.00000000  see jH, gK, PRB 81, 115126


--------------------------------------------------------------------------------------------------------




--------------------------------------- Iteration      1(   4)  ---------------------------------------


     EDDAV:  cpu time   28.9065: real time   28.9771
       DOS:  cpu time    0.0005: real time    0.0005
    --------------------------------------------
      LOOP:  cpu time   28.9070: real time   28.9776

 eigenvalue-minimisations  :  2144
 total energy-change (2. order) :-0.1124784E+02  (-0.1119431E+02)
 number of electron     626.0000000 magnetization     120.0000000
 augmentation part      626.0000000 magnetization     120.0000000

 Free energy of the ion-electron system (eV)
  ---------------------------------------------------
  alpha Z        PSCENC =       656.05789364
  Ewald energy   TEWEN  =     -6494.01814748
  -Hartree energ DENC   =    -28606.54144105
  -exchange      EXHF   =         0.00000000
  -V(xc)+E(xc)   XCENC  =      1270.09708176
  PAW double counting   =     22005.73466084   -21439.66778422
  entropy T*S    EENTRO =        -0.00000000
  eigenvalues    EBANDS =     -4937.85897850
  atomic energy  EATOM  =     38060.72444142
  Solvation  Ediel_sol  =         0.00000000
  ---------------------------------------------------
  free energy    TOTEN  =       514.52772642 eV

  energy without entropy =      514.52772642  energy(sigma->0) =      514.52772642
  exchange ACFDT corr.  =         0.00000000  see jH, gK, PRB 81, 115126


--------------------------------------------------------------------------------------------------------




--------------------------------------- Iteration      1(   5)  ---------------------------------------


     EDDAV:  cpu time 2742.1878: real time 2749.3605
       DOS:  cpu time    0.0006: real time    0.0006
    CHARGE:  cpu time    1.4137: real time    1.4171
    MIXING:  cpu time    0.0238: real time    0.0238
    --------------------------------------------
      LOOP:  cpu time 2743.6259: real time 2750.8020

 eigenvalue-minimisations  :  2240
 total energy-change (2. order) :-0.1842200E+04  (-0.4278493E+02)
 number of electron     626.0000003 magnetization     -72.0000000
 augmentation part       68.7843692 magnetization     -71.0098623

 Free energy of the ion-electron system (eV)
  ---------------------------------------------------
  alpha Z        PSCENC =       656.05789364
  Ewald energy   TEWEN  =     -6494.01814748
  -Hartree energ DENC   =    -28606.54144105
  -exchange      EXHF   =      1777.66785641
  -V(xc)+E(xc)   XCENC  =      1270.09708176
  PAW double counting   =     22005.73466084   -21439.66778422
  entropy T*S    EENTRO =        -0.00000000
  eigenvalues    EBANDS =     -8557.72716210
  atomic energy  EATOM  =     38060.72444142
  Solvation  Ediel_sol  =         0.00000000
  ---------------------------------------------------
  free energy    TOTEN  =     -1327.67260077 eV

  energy without entropy =    -1327.67260077  energy(sigma->0) =    -1327.67260077
  exchange ACFDT corr.  =        -0.00000000  see jH, gK, PRB 81, 115126


--------------------------------------------------------------------------------------------------------




--------------------------------------- Iteration      1(   6)  ---------------------------------------


    POTLOK:  cpu time    1.6087: real time    1.6172
    SETDIJ:  cpu time    0.8086: real time    0.8106
     EDDAV:  cpu time 2544.4281: real time 2550.9535
       DOS:  cpu time    0.0003: real time    0.0003
    CHARGE:  cpu time    1.4063: real time    1.4096
    MIXING:  cpu time    0.0096: real time    0.0096
    --------------------------------------------
      LOOP:  cpu time 2548.2616: real time 2554.8007

 eigenvalue-minimisations  :  2004
 total energy-change (2. order) : 0.1841842E+03  (-0.3067767E+02)
 number of electron     626.0000004 magnetization      43.2000000
 augmentation part       62.7208986 magnetization      43.4606387

 Free energy of the ion-electron system (eV)
  ---------------------------------------------------
  alpha Z        PSCENC =       656.05789364
  Ewald energy   TEWEN  =     -6494.01814748
  -Hartree energ DENC   =    -29959.54394101
  -exchange      EXHF   =      1905.01625922
  -V(xc)+E(xc)   XCENC  =      1385.84420269
  PAW double counting   =     25849.50479014   -25302.89278313
  entropy T*S    EENTRO =        -0.00000000
  eigenvalues    EBANDS =     -7244.18112277
  atomic energy  EATOM  =     38060.72444142
  Solvation  Ediel_sol  =         0.00000000
  ---------------------------------------------------
  free energy    TOTEN  =     -1143.48840727 eV

  energy without entropy =    -1143.48840727  energy(sigma->0) =    -1143.48840727
  exchange ACFDT corr.  =        -0.00000000  see jH, gK, PRB 81, 115126


--------------------------------------------------------------------------------------------------------




--------------------------------------- Iteration      1(   7)  ---------------------------------------


    POTLOK:  cpu time    1.6443: real time    1.6549
    SETDIJ:  cpu time    0.8170: real time    0.8189
     EDDAV:  cpu time 2434.9714: real time 2441.2182
       DOS:  cpu time    0.0003: real time    0.0003
    CHARGE:  cpu time    1.6102: real time    1.6140
    MIXING:  cpu time    0.0179: real time    0.0179
    --------------------------------------------
      LOOP:  cpu time 2439.0611: real time 2445.3243

 eigenvalue-minimisations  :  1904
 total energy-change (2. order) :-0.3637121E+02  (-0.1578195E+02)
 number of electron     626.0000005 magnetization     -25.9200000
 augmentation part       59.0397670 magnetization     -26.1895620

 Free energy of the ion-electron system (eV)
  ---------------------------------------------------
  alpha Z        PSCENC =       656.05789364
  Ewald energy   TEWEN  =     -6494.01814748
  -Hartree energ DENC   =    -30451.43987062
  -exchange      EXHF   =      1828.45076895
  -V(xc)+E(xc)   XCENC  =      1376.16847951
  PAW double counting   =     27372.54535951   -26829.61667842
  entropy T*S    EENTRO =        -0.00000000
  eigenvalues    EBANDS =     -6698.73185884
  atomic energy  EATOM  =     38060.72444142
  Solvation  Ediel_sol  =         0.00000000
  ---------------------------------------------------
  free energy    TOTEN  =     -1179.85961233 eV

  energy without entropy =    -1179.85961233  energy(sigma->0) =    -1179.85961233
  exchange ACFDT corr.  =         0.00000000  see jH, gK, PRB 81, 115126


--------------------------------------------------------------------------------------------------------




--------------------------------------- Iteration      1(   8)  ---------------------------------------


    POTLOK:  cpu time    1.7389: real time    1.7506
    SETDIJ:  cpu time    0.8958: real time    0.8983
     EDDAV:  cpu time 2322.8501: real time 2330.2828
       DOS:  cpu time    0.0004: real time    0.0004
    CHARGE:  cpu time    1.3450: real time    1.3483
    MIXING:  cpu time    0.0195: real time    0.0195
    --------------------------------------------
      LOOP:  cpu time 2326.8496: real time 2334.2998

 eigenvalue-minimisations  :  1868
 total energy-change (2. order) :-0.2111801E+02  (-0.5146976E+01)
 number of electron     626.0000005 magnetization      15.5520000
 augmentation part       58.5246893 magnetization      15.5375461

 Free energy of the ion-electron system (eV)
  ---------------------------------------------------
  alpha Z        PSCENC =       656.05789364
  Ewald energy   TEWEN  =     -6494.01814748
  -Hartree energ DENC   =    -30500.52159384
  -exchange      EXHF   =      1781.71704429
  -V(xc)+E(xc)   XCENC  =      1363.77562027
  PAW double counting   =     27719.24017910   -27174.85897847
  entropy T*S    EENTRO =        -0.00000000
  eigenvalues    EBANDS =     -6613.09408306
  atomic energy  EATOM  =     38060.72444142
  Solvation  Ediel_sol  =         0.00000000
  ---------------------------------------------------
  free energy    TOTEN  =     -1200.97762414 eV

  energy without entropy =    -1200.97762414  energy(sigma->0) =    -1200.97762414
  exchange ACFDT corr.  =        -0.00000000  see jH, gK, PRB 81, 115126


--------------------------------------------------------------------------------------------------------




--------------------------------------- Iteration      1(   9)  ---------------------------------------


    POTLOK:  cpu time    1.7057: real time    1.7177
    SETDIJ:  cpu time    0.8053: real time    0.8072
     EDDAV:  cpu time 2261.5807: real time 2269.1745
       DOS:  cpu time    0.0003: real time    0.0003
    CHARGE:  cpu time    1.3636: real time    1.3670
    MIXING:  cpu time    0.0096: real time    0.0097
    --------------------------------------------
      LOOP:  cpu time 2265.4653: real time 2273.0763

 eigenvalue-minimisations  :  1788
 total energy-change (2. order) :-0.1501455E+02  (-0.2186722E+01)
 number of electron     626.0000005 magnetization      -9.3312000
 augmentation part       58.7495039 magnetization      -9.4512341

 Free energy of the ion-electron system (eV)
  ---------------------------------------------------
  alpha Z        PSCENC =       656.05789364
  Ewald energy   TEWEN  =     -6494.01814748
  -Hartree energ DENC   =    -30499.58317764
  -exchange      EXHF   =      1773.71725884
  -V(xc)+E(xc)   XCENC  =      1350.24942972
  PAW double counting   =     27843.73323550   -27298.25762110
  entropy T*S    EENTRO =        -0.00000000
  eigenvalues    EBANDS =     -6608.61548827
  atomic energy  EATOM  =     38060.72444142
  Solvation  Ediel_sol  =         0.00000000
  ---------------------------------------------------
  free energy    TOTEN  =     -1215.99217537 eV

  energy without entropy =    -1215.99217537  energy(sigma->0) =    -1215.99217537
  exchange ACFDT corr.  =         0.00000000  see jH, gK, PRB 81, 115126


--------------------------------------------------------------------------------------------------------




--------------------------------------- Iteration      1(  10)  ---------------------------------------


    POTLOK:  cpu time    1.6591: real time    1.6697
    SETDIJ:  cpu time    0.8047: real time    0.8067
     EDDAV:  cpu time 2316.0222: real time 2322.8054
       DOS:  cpu time    0.0004: real time    0.0004
    CHARGE:  cpu time    1.6069: real time    1.6107
    MIXING:  cpu time    0.0102: real time    0.0102
    --------------------------------------------
      LOOP:  cpu time 2320.1035: real time 2326.9031

 eigenvalue-minimisations  :  1836
 total energy-change (2. order) :-0.3493003E+01  (-0.1005628E+01)
 number of electron     626.0000006 magnetization       5.5987200
 augmentation part       58.9718241 magnetization       5.5961972

 Free energy of the ion-electron system (eV)
  ---------------------------------------------------
  alpha Z        PSCENC =       656.05789364
  Ewald energy   TEWEN  =     -6494.01814748
  -Hartree energ DENC   =    -30519.80397452
  -exchange      EXHF   =      1775.60566270
  -V(xc)+E(xc)   XCENC  =      1348.64101435
  PAW double counting   =     27946.45476880   -27400.72015735
  entropy T*S    EENTRO =        -0.00000000
  eigenvalues    EBANDS =     -6592.42668018
  atomic energy  EATOM  =     38060.72444142
  Solvation  Ediel_sol  =         0.00000000
  ---------------------------------------------------
  free energy    TOTEN  =     -1219.48517862 eV

  energy without entropy =    -1219.48517862  energy(sigma->0) =    -1219.48517862
  exchange ACFDT corr.  =         0.00000000  see jH, gK, PRB 81, 115126


--------------------------------------------------------------------------------------------------------




--------------------------------------- Iteration      1(  11)  ---------------------------------------


    POTLOK:  cpu time    1.8873: real time    1.8979
    SETDIJ:  cpu time    0.8826: real time    0.8847
     EDDAV:  cpu time 2302.8305: real time 2308.6659
       DOS:  cpu time    0.0003: real time    0.0003
    CHARGE:  cpu time    1.3371: real time    1.3407
    MIXING:  cpu time    0.0187: real time    0.0187
    --------------------------------------------
      LOOP:  cpu time 2306.9566: real time 2312.8082

 eigenvalue-minimisations  :  1816
 total energy-change (2. order) :-0.5379868E+01  (-0.4526565E+00)
 number of electron     626.0000006 magnetization      -3.3592320
 augmentation part       58.9708938 magnetization      -3.3862356

 Free energy of the ion-electron system (eV)
  ---------------------------------------------------
  alpha Z        PSCENC =       656.05789364
  Ewald energy   TEWEN  =     -6494.01814748
  -Hartree energ DENC   =    -30550.89544173
  -exchange      EXHF   =      1777.35113094
  -V(xc)+E(xc)   XCENC  =      1345.72749732
  PAW double counting   =     28031.70107875   -27486.07310418
  entropy T*S    EENTRO =        -0.00000000
  eigenvalues    EBANDS =     -6565.44039529
  atomic energy  EATOM  =     38060.72444142
  Solvation  Ediel_sol  =         0.00000000
  ---------------------------------------------------
  free energy    TOTEN  =     -1224.86504661 eV

  energy without entropy =    -1224.86504661  energy(sigma->0) =    -1224.86504661
  exchange ACFDT corr.  =        -0.00000000  see jH, gK, PRB 81, 115126


--------------------------------------------------------------------------------------------------------




--------------------------------------- Iteration      1(  12)  ---------------------------------------


    POTLOK:  cpu time    1.7892: real time    1.8000
    SETDIJ:  cpu time    0.8015: real time    0.8034
[...]
      4.40721     10.41928      1.63440         0.061297      0.021404     -0.156050
      2.36803      1.31621     12.87899        -0.011986      0.014967      0.271270
     -4.51093     10.46784      1.88063        -0.035975      0.039004     -0.275926
     11.08443      1.52926     12.69959         0.176038     -0.059536      0.354577
      6.78508      6.70856      6.62809        -0.014141     -0.068234     -0.223449
      6.71969      1.00969      2.59345        -0.271858      0.156327      0.365777
      4.27328      2.53478      6.90234         0.134931      0.133225     -0.390956
      9.17961      5.35044      2.89529        -0.074235     -0.001012      0.348438
      9.31626      2.46462      6.67160        -0.127254      0.116284     -0.215053
      4.39925      5.38468      2.83080         0.067236     -0.037617      0.334045
      0.03279     10.75663     11.89803         0.005296     -0.102431     -0.360050
     -0.05729      5.10371      7.85322         0.023345      0.099908      0.258858
     -2.22753      6.58589     11.67502        -0.010947     -0.005480     -0.259236
      2.56370      9.35428      7.68434        -0.175854     -0.151242      0.387006
      2.55023      6.34805     11.81913        -0.142784      0.077806     -0.370054
     -2.46376      9.17017      7.68816        -0.071054     -0.304809      0.367017
     -1.76895      3.06792     14.70741         0.152711     -0.274412     -0.011280
      8.61331      8.64830      0.02365        -0.166864      0.352382     -0.011316
      5.11600      8.44390      0.00004         0.137581      0.434376      0.262737
      1.62902      3.16728     14.65063        -0.130180     -0.335281     -0.000508
      3.69066      0.05079      0.06996        -0.409537     -0.021344     -0.030965
      4.78498      7.00018      4.91021         0.272719     -0.280837      0.009629
      8.28126      0.57888      5.05587        -0.012008      0.395752      0.261136
      5.29226      1.28570      4.81577        -0.022361      0.065943      0.006906
      8.77144      7.02541      4.92964        -0.247455     -0.310562     -0.005756
     10.49639      4.08703      4.84647        -0.443799     -0.091639      0.025789
      3.34401      3.86262      4.75320         0.291480      0.074143      0.007881
     -1.72203     11.03731      9.85116         0.108719     -0.257033      0.303635
      1.92311      4.87714      9.67761        -0.248955      0.256304     -0.001558
     -1.79804      4.70210      9.82585         0.207334      0.349517     -0.028223
      1.76974     10.66140      9.85064        -0.145045     -0.141812      0.023353
      3.26156      7.84292      9.77947        -0.178442      0.027221     -0.032166
     -3.51356      8.02741      9.86415         0.303581     -0.091814      0.013347
      9.89347      0.19225     14.70144         0.441925     -0.092323      0.011077
     12.05870      2.70747      1.51533         0.021134      0.052022      0.024388
     -5.17126      9.06604     13.22972        -0.122179     -0.018662     -0.059166
      5.24337      9.04907      1.47013        -0.059583      0.019183      0.001895
      1.49987      2.65120     13.11329         0.038035      0.000057     -0.047154
      3.04132      0.03021      1.57552         0.021848     -0.039316      0.071976
     10.53244      0.07260     13.16824         0.008808      0.016188      0.015786
     -3.62340     11.84132     13.27409        -0.010933      0.027568     -0.066613
      3.67593     11.83201      1.47833        -0.080987     -0.032299      0.043152
      1.47106      2.77242      1.46099        -0.032220      0.064288      0.054863
     12.06823      2.73194     13.13811        -0.074390      0.026906     -0.031751
      8.35239      9.11167      1.55968         0.049074      0.005501      0.031834
      5.20126      6.59574      6.41484         0.045260      0.041277      0.047714
      5.28237      1.33358      6.44187        -0.082062     -0.034712      0.021966
      8.39622      6.67327      3.38007         0.090114      0.038470     -0.017467
      9.95989      3.89607      6.35930         0.025777     -0.029548      0.048969
      3.70915      3.96414      3.16773        -0.012064      0.035055     -0.043049
      9.88567      3.94576      3.32494         0.017678      0.014881     -0.036067
      3.65234      3.90340      6.34245         0.007291     -0.044524      0.076064
      5.25087      1.31121      3.20862         0.159806     -0.047950     -0.003258
      8.37624      6.58038      6.43527        -0.032368      0.044730      0.053026
      5.18522      6.69895      3.35985        -0.089810      0.050929     -0.008490
      8.29702      1.20477      6.52553         0.060893     -0.018255      0.011189
     -1.51974     10.71235     11.39672         0.020108      0.030025     -0.009523
      1.53348      5.20983      8.13592        -0.011589     -0.031188     -0.073045
     -1.48964      5.19580     11.34820        -0.058293     -0.009857      0.031941
      1.58444     10.54811      8.24413        -0.058494      0.051291     -0.038080
      3.08306      7.82886     11.39818         0.092636      0.014277      0.065074
     -3.19840      7.88814      8.27131        -0.003036      0.081821     -0.066562
      3.07623      7.90767      8.18591         0.054681      0.031947     -0.023041
     -3.00437      7.97624     11.41247        -0.014438     -0.044216      0.041882
     -1.62520      5.10105      8.26880        -0.008625     -0.037570     -0.030092
      1.55695     10.47858     11.43822        -0.005030      0.075855      0.003796
      1.66535      5.10518     11.28176         0.037702      0.009499      0.048688
      5.31158      9.15790     13.21466         0.046495     -0.022365     -0.055416
      8.30400      1.11490      3.41768        -0.034615     -0.054224     -0.034026
     -1.60850     10.61824      8.17030        -0.003407     -0.007547     -0.079349
      7.50005      0.29689      0.54279        -0.004955     -0.015910      0.004346
     -0.20169      7.97472      7.02753        -0.013274      0.024160     -0.042723
      6.58284      7.21852     11.31141        -0.080912      0.108646      0.082496
      7.14358      5.76483      9.60937         0.118362     -0.554797      0.010721
      8.79295      5.11777      9.91041        -0.077682     -0.018927     -0.023062
      6.07891      4.30597      9.62670         0.033380      0.005325     -0.023325
      9.22624      4.83650      8.94746        -0.139691     -0.118590      0.297951
      8.80342      4.27526     10.60734        -0.103088      0.112236     -0.067747
      9.35736      5.95057     10.33085        -0.136421     -0.305005     -0.081320
      6.54108      3.50962     10.21869        -0.115952      0.133543     -0.058500
      5.12548      4.59977     10.07943         0.168330     -0.138071     -0.123665
      5.92020      3.98202      8.59354         0.066221     -0.064915      0.265600
 -----------------------------------------------------------------------------------
    total drift:                               -0.005279     -0.001701     -0.000499


--------------------------------------------------------------------------------------------------------



  FREE ENERGIE OF THE ION-ELECTRON SYSTEM (eV)
  ---------------------------------------------------
  free  energy   TOTEN  =     -1226.56193585 eV

  energy  without entropy=    -1226.56193585  energy(sigma->0) =    -1226.56193585
 


--------------------------------------------------------------------------------------------------------


    POTLOK:  cpu time    2.6245: real time    2.6309


--------------------------------------------------------------------------------------------------------


 stress matrix after NEB project (eV)
      0.00000      0.00000      0.00000
      0.00000      0.00000      0.00000
      0.00000      0.00000      0.00000
  FORCES: max atom, RMS     0.567384    0.308815
  FORCE total and by dimension    3.382897    0.554797
  Stress total and by dimension    0.000000    0.000000
     LOOP+:  cpu time80495.6147: real time80714.3228
    4ORBIT:  cpu time    0.0000: real time    0.0000
 


 total charge     
 
# of ion       s       p       d       tot
------------------------------------------
    1        1.578   3.721   0.000   5.299
    2        1.576   3.737   0.000   5.313
    3        1.580   3.726   0.000   5.306
    4        1.578   3.717   0.000   5.295
    5        1.577   3.728   0.000   5.304
    6        1.581   3.694   0.000   5.275
    7        1.581   3.729   0.000   5.309
    8        1.579   3.695   0.000   5.274
    9        1.582   3.695   0.000   5.277
   10        1.573   3.726   0.000   5.299
   11        1.579   3.719   0.000   5.298
   12        1.581   3.715   0.000   5.296
   13        1.580   3.729   0.000   5.309
   14        1.578   3.685   0.000   5.263
   15        1.578   3.737   0.000   5.315
   16        1.579   3.667   0.000   5.246
   17        1.580   3.706   0.000   5.286
   18        1.578   3.709   0.000   5.287
   19        1.579   3.733   0.000   5.312
   20        1.582   3.721   0.000   5.303
   21        1.583   3.730   0.000   5.313
   22        1.579   3.723   0.000   5.302
   23        1.583   3.724   0.000   5.306
   24        1.579   3.736   0.000   5.315
   25        1.580   3.720   0.000   5.300
   26        1.584   3.685   0.000   5.269
   27        1.579   3.690   0.000   5.270
   28        1.580   3.726   0.000   5.306
   29        1.581   3.732   0.000   5.313
   30        1.581   3.731   0.000   5.312
   31        1.580   3.731   0.000   5.312
   32        1.584   3.698   0.000   5.282
   33        1.580   3.730   0.000   5.309
   34        1.580   3.729   0.000   5.309
   35        1.579   3.728   0.000   5.307
   36        1.582   3.722   0.000   5.304
   37        1.579   3.732   0.000   5.311
   38        1.579   3.682   0.000   5.261
   39        1.575   3.760   0.000   5.334
   40        1.575   3.747   0.000   5.323
   41        1.576   3.751   0.000   5.327
   42        1.580   3.727   0.000   5.307
   43        1.576   3.761   0.000   5.337
   44        1.578   3.663   0.000   5.241
   45        1.582   3.728   0.000   5.310
   46        1.578   3.731   0.000   5.309
   47        1.576   3.746   0.000   5.322
   48        1.578   3.735   0.000   5.312
   49        1.580   3.727   0.000   5.307
   50        1.577   3.738   0.000   5.315
   51        1.576   3.751   0.000   5.327
   52        1.582   3.714   0.000   5.296
   53        1.579   3.723   0.000   5.303
   54        1.584   3.683   0.000   5.267
   55        1.578   3.738   0.000   5.317
   56        1.580   3.727   0.000   5.307
   57        1.586   3.683   0.000   5.269
   58        1.578   3.719   0.000   5.297
   59        1.580   3.708   0.000   5.288
   60        1.582   3.726   0.000   5.308
   61        1.582   3.685   0.000   5.267
   62        1.573   3.750   0.000   5.323
   63        1.582   3.719   0.000   5.301
   64        1.583   3.711   0.000   5.294
   65        1.575   3.731   0.000   5.306
   66        1.578   3.688   0.000   5.266
   67        1.576   3.718   0.000   5.293
   68        1.581   3.726   0.000   5.307
   69        1.575   3.746   0.000   5.321
   70        1.575   3.748   0.000   5.323
   71        1.578   3.725   0.000   5.303
   72        1.580   3.679   0.000   5.259
   73        0.638   0.996   0.000   1.634
   74        0.643   1.001   0.000   1.645
   75        0.647   1.012   0.000   1.658
   76        0.635   0.987   0.000   1.622
   77        0.638   0.995   0.000   1.634
   78        0.646   1.002   0.000   1.647
   79        0.637   0.993   0.000   1.630
   80        0.643   1.000   0.000   1.643
   81        0.636   0.987   0.000   1.623
   82        0.640   0.998   0.000   1.637
   83        0.640   1.002   0.000   1.642
   84        0.642   1.009   0.000   1.651
   85        0.644   1.001   0.000   1.645
   86        0.637   0.990   0.000   1.627
   87        0.639   0.996   0.000   1.636
   88        0.637   0.990   0.000   1.627
   89        0.642   0.998   0.000   1.640
   90        0.640   0.999   0.000   1.639
   91        0.644   1.001   0.000   1.645
   92        0.638   0.997   0.000   1.635
   93        0.638   0.994   0.000   1.632
   94        0.644   0.996   0.000   1.639
   95        0.642   0.998   0.000   1.640
   96        0.636   0.984   0.000   1.620
   97        0.639   1.003   0.000   1.642
   98        0.644   1.000   0.000   1.644
   99        0.641   0.996   0.000   1.637
  100        0.644   0.999   0.000   1.642
  101        0.640   0.994   0.000   1.634
  102        0.640   1.002   0.000   1.642
  103        0.640   1.000   0.000   1.639
  104        0.639   0.998   0.000   1.636
  105        0.636   0.988   0.000   1.624
  106        0.354   0.476   0.000   0.829
  107        0.350   0.470   0.000   0.820
  108        0.348   0.468   0.000   0.816
  109        0.090   0.061   9.257   9.408
  110        0.092   0.069   9.264   9.425
  111        0.246   0.149   9.148   9.544
  112        1.315   2.423   0.000   3.738
  113        0.852   1.756   0.000   2.608
  114        0.849   1.747   0.000   2.596
  115        0.647   0.047   0.000   0.694
  116        0.641   0.045   0.000   0.685
  117        0.647   0.047   0.000   0.695
  118        0.641   0.044   0.000   0.685
  119        0.642   0.044   0.000   0.686
  120        0.639   0.046   0.000   0.685
--------------------------------------------------
tot        143.182 308.647  27.670 479.499
 


 magnetization (x)
 
# of ion       s       p       d       tot
------------------------------------------
    1        0.000   0.000   0.000   0.000
    2       -0.000  -0.000   0.000  -0.000
    3        0.000   0.000   0.000   0.000
    4       -0.000  -0.000   0.000  -0.000
    5        0.000   0.000   0.000   0.000
    6       -0.000  -0.000   0.000  -0.000
    7        0.000  -0.000   0.000  -0.000
    8        0.000   0.000   0.000   0.000
    9       -0.000  -0.000   0.000  -0.000
   10        0.000   0.000   0.000   0.000
   11       -0.000  -0.000   0.000  -0.000
   12        0.000   0.000   0.000   0.000
   13       -0.000  -0.000   0.000  -0.000
   14       -0.000  -0.000   0.000  -0.000
   15       -0.000  -0.000   0.000  -0.000
   16       -0.000  -0.000   0.000  -0.000
   17       -0.000  -0.000   0.000  -0.000
   18        0.000  -0.000   0.000  -0.000
   19        0.000   0.000   0.000   0.000
   20       -0.000  -0.000   0.000  -0.000
   21        0.000   0.000   0.000   0.000
   22        0.000  -0.000   0.000  -0.000
   23        0.000   0.000   0.000   0.000
   24       -0.000  -0.000   0.000  -0.000
   25       -0.000  -0.000   0.000  -0.000
   26        0.000   0.000   0.000   0.000
   27       -0.000  -0.000   0.000  -0.000
   28        0.000   0.000   0.000   0.000
   29       -0.000  -0.000   0.000  -0.000
   30        0.000   0.000   0.000   0.000
   31       -0.000  -0.000   0.000  -0.000
   32       -0.000  -0.000   0.000  -0.000
   33       -0.000  -0.000   0.000  -0.000
   34       -0.000  -0.000   0.000  -0.000
   35       -0.000  -0.000   0.000  -0.000
   36       -0.000  -0.000   0.000  -0.000
   37        0.000   0.000   0.000   0.000
   38       -0.000  -0.000   0.000  -0.000
   39        0.000   0.000   0.000   0.000
   40       -0.000  -0.000   0.000  -0.000
   41        0.000   0.000   0.000   0.000
   42       -0.000  -0.000   0.000  -0.000
   43        0.000  -0.000   0.000  -0.000
   44        0.000   0.000   0.000   0.000
   45       -0.000  -0.000   0.000  -0.000
   46        0.000   0.000   0.000   0.000
   47        0.000  -0.000   0.000  -0.000
   48        0.000   0.000   0.000   0.000
   49       -0.000  -0.000   0.000  -0.000
   50        0.000  -0.000   0.000  -0.000
   51       -0.000  -0.000   0.000  -0.000
   52       -0.000  -0.000   0.000  -0.000
   53       -0.000  -0.000   0.000  -0.000
   54       -0.000  -0.000   0.000  -0.000
   55        0.000   0.000   0.000   0.000
   56        0.000   0.000   0.000   0.000
   57        0.000   0.000   0.000   0.000
   58        0.000   0.000   0.000   0.000
   59        0.000   0.000   0.000   0.000
   60        0.000   0.000   0.000   0.000
   61        0.000   0.000   0.000   0.000
   62        0.000   0.000   0.000   0.000
   63        0.000   0.000   0.000   0.000
   64        0.000   0.000   0.000   0.000
   65        0.000   0.000   0.000   0.000
   66       -0.000  -0.000   0.000  -0.000
   67       -0.000  -0.000   0.000  -0.000
   68       -0.000  -0.000   0.000  -0.000
   69       -0.000  -0.000   0.000  -0.000
   70       -0.000  -0.000   0.000  -0.000
   71       -0.000  -0.000   0.000  -0.000
   72        0.000   0.000   0.000   0.000
   73       -0.000  -0.000   0.000  -0.000
   74        0.000   0.000   0.000   0.000
   75       -0.000  -0.000   0.000  -0.000
   76        0.000   0.000   0.000   0.000
   77       -0.000  -0.000   0.000  -0.000
   78        0.000   0.000   0.000   0.000
   79        0.000   0.000   0.000   0.000
   80       -0.000  -0.000   0.000  -0.000
   81       -0.000  -0.000   0.000  -0.000
   82        0.000   0.000   0.000   0.000
   83       -0.000  -0.000   0.000  -0.000
   84        0.000   0.000   0.000   0.000
   85        0.000   0.000   0.000   0.000
   86       -0.000  -0.000   0.000  -0.000
   87       -0.000   0.000   0.000   0.000
   88       -0.000  -0.000   0.000  -0.000
   89       -0.000  -0.000   0.000  -0.000
   90       -0.000   0.000   0.000   0.000
   91       -0.000  -0.000   0.000  -0.000
   92        0.000   0.000   0.000   0.000
   93       -0.000  -0.000   0.000  -0.000
   94        0.000   0.000   0.000   0.000
   95        0.000   0.000   0.000   0.000
   96        0.000   0.000   0.000   0.000
   97        0.000   0.000   0.000   0.000
   98        0.000   0.000   0.000   0.000
   99        0.000   0.000   0.000   0.000
  100        0.000   0.000   0.000   0.000
  101        0.000   0.000   0.000   0.000
  102        0.000   0.000   0.000   0.000
  103        0.000   0.000   0.000   0.000
  104        0.000   0.000   0.000   0.000
  105        0.000   0.000   0.000   0.000
  106        0.000   0.000   0.000   0.000
  107       -0.000  -0.000   0.000  -0.000
  108        0.000   0.000   0.000   0.000
  109       -0.000  -0.000   0.000   0.000
  110       -0.000   0.000   0.000   0.000
  111        0.000   0.000  -0.000  -0.000
  112       -0.000  -0.000   0.000  -0.000
  113       -0.000  -0.000   0.000  -0.000
  114       -0.000  -0.000   0.000  -0.000
  115        0.000  -0.000   0.000   0.000
  116        0.000  -0.000   0.000   0.000
  117        0.000  -0.000   0.000   0.000
  118        0.000  -0.000   0.000   0.000
  119        0.000  -0.000   0.000   0.000
  120        0.000  -0.000   0.000   0.000
--------------------------------------------------
tot          0.000   0.000   0.000   0.000
 

 total amount of memory used by VASP MPI-rank0   239137. kBytes
=======================================================================

   base      :      30000. kBytes
   nonlr-proj:      33136. kBytes
   fftplans  :      69849. kBytes
   grid      :      66179. kBytes
   one-center:        933. kBytes
   HF        :        324. kBytes
   wavefun   :      38716. kBytes
 
  
  
 General timing and accounting informations for this job:
 ========================================================
  
                  Total CPU time used (sec):    80522.438
                            User time (sec):    71712.823
                          System time (sec):     8809.618
                         Elapsed time (sec):    80741.946
  
                   Maximum memory used (kb):      468488.
                   Average memory used (kb):           0.
  
                          Minor page faults:    786400843
                          Major page faults:            5
                 Voluntary context switches:         1556
