>>>  VASP 5.4.4 with BEEF-vdw and vtst
--------------------------------------------------------
>>>  Job information
     SLURM_JOBID=8740385
     SLURM_JOB_NODELIST=cpn-q07-40-01
     SLURM_NNODES=1
     SLURMTMPDIR=/scratch/8740385
     working directory = /projects/academic/ericwalk/ruthbell/Ads_Ag-SSZ13/SULPHURS/COS-S/PBE
--------------------------------------------------------
>>>  Module information
--------------------------------------------------------
>>>  Running Configuration
NPROCS=16
--------------------------------------------------------
>>>  Job started at Mon Jun 27 13:48:50 EDT 2022
--------------------------------------------------------
 running on   16 total cores
 distrk:  each k-point on   16 cores,    1 groups
 distr:  one band on    4 cores,    4 groups
 using from now: INCAR     
 vasp.5.4.4.18Apr17-6-g9f103f2a35 (build Dec 31 2018 11:41:54) complex          
  
 POSCAR found type information on POSCAR  O  Si Al Ag S  C 
 POSCAR found :  6 types and     114 ions
 scaLAPACK will be used
 LDA part: xc-table for Pade appr. of Perdew
 POSCAR found type information on POSCAR  O  Si Al Ag S  C 
 POSCAR found :  6 types and     114 ions
 POSCAR, INCAR and KPOINTS ok, starting setup
 FFT: planning ...
 WAVECAR not read
 entering main loop
       N       E                     dE             d eps       ncg     rms          rms(c)
DAV:   1     0.438578644175E+04    0.43858E+04   -0.25974E+05  1792   0.103E+03
DAV:   2    -0.427670861691E+03   -0.48135E+04   -0.46302E+04  2112   0.295E+02
DAV:   3    -0.945130354375E+03   -0.51746E+03   -0.51372E+03  2096   0.102E+02
DAV:   4    -0.955568667763E+03   -0.10438E+02   -0.10398E+02  2144   0.158E+01
DAV:   5    -0.955842921693E+03   -0.27425E+00   -0.27389E+00  2152   0.235E+00    0.869E+01
DAV:   6    -0.602976877954E+03    0.35287E+03   -0.71565E+02  2024   0.392E+01    0.281E+01
DAV:   7    -0.692316559492E+03   -0.89340E+02   -0.83941E+01  2048   0.126E+01    0.192E+01
DAV:   8    -0.761836636572E+03   -0.69520E+02   -0.30017E+01  2040   0.786E+00    0.111E+01
DAV:   9    -0.839817246069E+03   -0.77981E+02   -0.58757E+01  2016   0.904E+00    0.492E+00
DAV:  10    -0.853451814225E+03   -0.13635E+02   -0.78936E+00  2048   0.362E+00    0.354E+00
DAV:  11    -0.870340324198E+03   -0.16889E+02   -0.12137E+01  1992   0.417E+00    0.171E+00
DAV:  12    -0.872313899256E+03   -0.19736E+01   -0.10550E+00  2016   0.140E+00    0.918E-01
DAV:  13    -0.873335690981E+03   -0.10218E+01   -0.44780E-01  1936   0.934E-01    0.456E-01
DAV:  14    -0.873493156611E+03   -0.15747E+00   -0.60545E-02  1944   0.359E-01    0.279E-01
DAV:  15    -0.873524831883E+03   -0.31675E-01   -0.15221E-02  2000   0.240E-01    0.141E-01
DAV:  16    -0.873530222670E+03   -0.53908E-02   -0.46596E-03  2032   0.134E-01    0.990E-02
DAV:  17    -0.873534711330E+03   -0.44887E-02   -0.18271E-03  2072   0.997E-02    0.426E-02
DAV:  18    -0.873538717842E+03   -0.40065E-02   -0.14656E-03  2000   0.774E-02    0.534E-02
DAV:  19    -0.873539379469E+03   -0.66163E-03   -0.31581E-04  2088   0.438E-02    0.296E-02
DAV:  20    -0.873539816311E+03   -0.43684E-03   -0.34227E-04  2088   0.393E-02    0.169E-02
DAV:  21    -0.873540170456E+03   -0.35415E-03   -0.15574E-04  1992   0.295E-02    0.119E-02
DAV:  22    -0.873540297743E+03   -0.12729E-03   -0.84086E-05  1840   0.198E-02    0.417E-03
DAV:  23    -0.873540391600E+03   -0.93857E-04   -0.30460E-05  1776   0.119E-02    0.283E-03
DAV:  24    -0.873540449289E+03   -0.57688E-04   -0.16430E-05  1624   0.785E-03    0.197E-03
DAV:  25    -0.873540472339E+03   -0.23050E-04   -0.76714E-06  1568   0.501E-03    0.161E-03
DAV:  26    -0.873540491115E+03   -0.18776E-04   -0.47365E-06  1448   0.347E-03    0.135E-03
DAV:  27    -0.873540495176E+03   -0.40618E-05   -0.15030E-06  1504   0.180E-03
   1 F= -.87354050E+03 E0= -.87354050E+03  d E =-.873540E+03  mag=     0.0001
 BRION: g(F)=  0.118E+02 g(S)=  0.000E+00
 bond charge predicted
       N       E                     dE             d eps       ncg     rms          rms(c)
DAV:   1    -0.423787082290E+03    0.44975E+03   -0.17065E+03  2016   0.419E+01    0.209E+01
DAV:   2    -0.430424293957E+03   -0.66372E+01   -0.18220E+02  2056   0.120E+01    0.129E+01
DAV:   3    -0.425267012297E+03    0.51573E+01   -0.16427E+01  2448   0.508E+00    0.366E+00
DAV:   4    -0.425017289817E+03    0.24972E+00   -0.19446E+00  2016   0.165E+00    0.175E+00
DAV:   5    -0.424786145507E+03    0.23114E+00   -0.45275E-01  2288   0.106E+00    0.767E-01
DAV:   6    -0.424764683351E+03    0.21462E-01   -0.69907E-02  2200   0.652E-01    0.508E-01
DAV:   7    -0.424770684489E+03   -0.60011E-02   -0.44295E-02  2224   0.651E-01    0.281E-01
DAV:   8    -0.424771527557E+03   -0.84307E-03   -0.13884E-02  2144   0.264E-01    0.188E-01
DAV:   9    -0.424772462204E+03   -0.93465E-03   -0.41576E-03  1936   0.143E-01    0.685E-02
DAV:  10    -0.424773080397E+03   -0.61819E-03   -0.98629E-04  2208   0.116E-01    0.583E-02
DAV:  11    -0.424773816563E+03   -0.73617E-03   -0.12086E-03  2288   0.131E-01    0.375E-02
DAV:  12    -0.424774103757E+03   -0.28719E-03   -0.64456E-04  2048   0.547E-02    0.338E-02
DAV:  13    -0.424774202219E+03   -0.98462E-04   -0.15369E-04  2016   0.256E-02    0.123E-02
DAV:  14    -0.424774298859E+03   -0.96639E-04   -0.22554E-05  1584   0.161E-02    0.877E-03
DAV:  15    -0.424774328641E+03   -0.29783E-04   -0.22902E-05  1656   0.122E-02    0.446E-03
DAV:  16    -0.424774340477E+03   -0.11836E-04   -0.11332E-05  1440   0.856E-03    0.315E-03
DAV:  17    -0.424774347418E+03   -0.69405E-05   -0.46812E-06  1408   0.502E-03
   2 F= -.42477435E+03 E0= -.42477435E+03  d E =0.448766E+03  mag=     0.0000
 BRION: g(F)=  0.749E+06 g(S)=  0.000E+00 retain N=  1 mean eig= 0.00
 eig:   0.003
 bond charge predicted
       N       E                     dE             d eps       ncg     rms          rms(c)
DAV:   1    -0.884178872405E+03   -0.45940E+03   -0.18267E+03  1824   0.163E+01    0.211E+01
DAV:   2    -0.875753256875E+03    0.84256E+01   -0.41230E+01  2240   0.656E+00    0.111E+01
DAV:   3    -0.873426519997E+03    0.23267E+01   -0.74919E+00  2208   0.337E+00    0.521E+00
DAV:   4    -0.872616859069E+03    0.80966E+00   -0.27895E+00  2384   0.331E+00    0.156E+00
DAV:   5    -0.872554273703E+03    0.62585E-01   -0.24917E-01  2304   0.111E+00    0.737E-01
DAV:   6    -0.872539049411E+03    0.15224E-01   -0.42018E-02  2096   0.451E-01    0.370E-01
DAV:   7    -0.872541047411E+03   -0.19980E-02   -0.18924E-02  2128   0.361E-01    0.193E-01
DAV:   8    -0.872543735539E+03   -0.26881E-02   -0.76332E-03  2384   0.371E-01    0.109E-01
DAV:   9    -0.872545919619E+03   -0.21841E-02   -0.57699E-03  2088   0.193E-01    0.909E-02
DAV:  10    -0.872546976292E+03   -0.10567E-02   -0.16353E-03  2152   0.912E-02    0.508E-02
DAV:  11    -0.872547304054E+03   -0.32776E-03   -0.25076E-04  2048   0.590E-02    0.291E-02
DAV:  12    -0.872547562501E+03   -0.25845E-03   -0.19888E-04  2136   0.494E-02    0.179E-02
DAV:  13    -0.872547652185E+03   -0.89684E-04   -0.14203E-04  2160   0.277E-02    0.123E-02
DAV:  14    -0.872547694752E+03   -0.42567E-04   -0.13119E-05  1488   0.123E-02    0.843E-03
DAV:  15    -0.872547717908E+03   -0.23156E-04   -0.14272E-05  1472   0.895E-03    0.601E-03
DAV:  16    -0.872547722449E+03   -0.45405E-05   -0.86488E-06  1488   0.688E-03
   3 F= -.87254772E+03 E0= -.87254772E+03  d E =-.447773E+03  mag=    -0.0000
 BRION: g(F)=  0.610E+01 g(S)=  0.000E+00 retain N=  1 mean eig= 0.00
 eig:   0.003
 bond charge predicted
       N       E                     dE             d eps       ncg     rms          rms(c)
DAV:   1    -0.872482110666E+03    0.65607E-01   -0.38303E+02  1760   0.252E+01    0.575E+00
DAV:   2    -0.872993181743E+03   -0.51107E+00   -0.15910E+01  2096   0.546E+00    0.334E+00
DAV:   3    -0.872785384626E+03    0.20780E+00   -0.79322E-01  2176   0.164E+00    0.193E+00
DAV:   4    -0.872669905775E+03    0.11548E+00   -0.27140E-01  2112   0.953E-01    0.719E-01
DAV:   5    -0.872639088719E+03    0.30817E-01   -0.64391E-02  2192   0.823E-01    0.295E-01
DAV:   6    -0.872630038739E+03    0.90500E-02   -0.40714E-02  2384   0.591E-01    0.234E-01
DAV:   7    -0.872626344584E+03    0.36942E-02   -0.76468E-03  2288   0.240E-01    0.124E-01
DAV:   8    -0.872623576451E+03    0.27681E-02   -0.36231E-03  2240   0.326E-01    0.102E-01
DAV:   9    -0.872623609483E+03   -0.33032E-04   -0.30928E-03  2176   0.134E-01    0.689E-02
DAV:  10    -0.872623954074E+03   -0.34459E-03   -0.14952E-03  2048   0.957E-02    0.515E-02
DAV:  11    -0.872624148703E+03   -0.19463E-03   -0.19420E-04  2160   0.757E-02    0.233E-02
DAV:  12    -0.872624339510E+03   -0.19081E-03   -0.31944E-04  2016   0.403E-02    0.124E-02
DAV:  13    -0.872624394265E+03   -0.54754E-04   -0.56115E-05  2064   0.171E-02    0.118E-02
DAV:  14    -0.872624435898E+03   -0.41633E-04   -0.12515E-05  1392   0.840E-03    0.869E-03
DAV:  15    -0.872624460769E+03   -0.24872E-04   -0.10414E-05  1408   0.694E-03    0.412E-03
DAV:  16    -0.872624468663E+03   -0.78936E-05   -0.59377E-06  1440   0.556E-03
   4 F= -.87262447E+03 E0= -.87262447E+03  d E =-.767462E-01  mag=     0.0000
 BRION: g(F)=  0.233E+02 g(S)=  0.000E+00 retain N=  2 mean eig= 0.09
 eig:   0.003  0.170
 bond charge predicted
       N       E                     dE             d eps       ncg     rms          rms(c)
DAV:   1    -0.873809859403E+03   -0.11854E+01   -0.22167E+02  1728   0.241E+01    0.374E+00
DAV:   2    -0.873980707912E+03   -0.17085E+00   -0.78897E+00  2128   0.472E+00    0.244E+00
DAV:   3    -0.873793264980E+03    0.18744E+00   -0.49083E-01  2128   0.155E+00    0.147E+00
DAV:   4    -0.873671917697E+03    0.12135E+00   -0.15607E-01  2368   0.122E+00    0.557E-01
DAV:   5    -0.873631001426E+03    0.40916E-01   -0.83810E-02  2352   0.105E+00    0.277E-01
DAV:   6    -0.873619984646E+03    0.11017E-01   -0.63607E-02  2352   0.796E-01    0.306E-01
DAV:   7    -0.873617690822E+03    0.22938E-02   -0.20762E-02  2208   0.279E-01    0.262E-01
DAV:   8    -0.873614459044E+03    0.32318E-02   -0.46869E-03  2256   0.186E-01    0.783E-02
DAV:   9    -0.873613301919E+03    0.11571E-02   -0.38995E-03  2304   0.320E-01    0.142E-01
DAV:  10    -0.873613628854E+03   -0.32694E-03   -0.51525E-03  2384   0.181E-01    0.583E-02
DAV:  11    -0.873613905510E+03   -0.27666E-03   -0.12064E-03  1984   0.591E-02    0.702E-02
DAV:  12    -0.873614103765E+03   -0.19825E-03   -0.36403E-04  2128   0.405E-02    0.190E-02
DAV:  13    -0.873614233056E+03   -0.12929E-03   -0.77909E-05  2224   0.235E-02    0.150E-02
DAV:  14    -0.873614290865E+03   -0.57809E-04   -0.42857E-05  1824   0.161E-02    0.556E-03
DAV:  15    -0.873614320182E+03   -0.29316E-04   -0.21822E-05  1648   0.114E-02    0.465E-03
DAV:  16    -0.873614334433E+03   -0.14252E-04   -0.19164E-05  1648   0.953E-03    0.364E-03
DAV:  17    -0.873614333639E+03    0.79423E-06   -0.16642E-05  1568   0.802E-03
   5 F= -.87361433E+03 E0= -.87361433E+03  d E =-.989865E+00  mag=    -0.0000
 BRION: g(F)=  0.648E+01 g(S)=  0.000E+00 retain N=  1 mean eig= 0.21
 eig:   0.206
 bond charge predicted
       N       E                     dE             d eps       ncg     rms          rms(c)
DAV:   1    -0.804649166244E+03    0.68965E+02   -0.12434E+03  1872   0.385E+01    0.144E+01
DAV:   2    -0.808864703838E+03   -0.42155E+01   -0.98322E+01  2016   0.777E+00    0.106E+01
DAV:   3    -0.806456541319E+03    0.24082E+01   -0.10520E+01  2096   0.330E+00    0.250E+00
DAV:   4    -0.806335793169E+03    0.12075E+00   -0.93161E-01  1984   0.121E+00    0.117E+00
DAV:   5    -0.806300487848E+03    0.35305E-01   -0.18951E-01  2208   0.540E-01    0.591E-01
DAV:   6    -0.806292807540E+03    0.76803E-02   -0.23064E-02  2128   0.296E-01    0.266E-01
DAV:   7    -0.806288369719E+03    0.44378E-02   -0.11410E-02  2496   0.332E-01    0.156E-01
DAV:   8    -0.806287548378E+03    0.82134E-03   -0.39378E-03  2304   0.148E-01    0.127E-01
DAV:   9    -0.806287051019E+03    0.49736E-03   -0.20708E-03  2016   0.940E-02    0.521E-02
DAV:  10    -0.806286868966E+03    0.18205E-03   -0.23403E-04  2224   0.731E-02    0.424E-02
DAV:  11    -0.806286811992E+03    0.56974E-04   -0.37481E-04  2256   0.823E-02    0.177E-02
DAV:  12    -0.806286870352E+03   -0.58360E-04   -0.36694E-04  1952   0.386E-02    0.182E-02
DAV:  13    -0.806286851384E+03    0.18968E-04   -0.72442E-05  1832   0.205E-02    0.865E-03
DAV:  14    -0.806286898292E+03   -0.46907E-04   -0.46573E-05  1704   0.205E-02    0.430E-03
DAV:  15    -0.806286892365E+03    0.59269E-05   -0.82289E-05  1672   0.173E-02
   6 F= -.80628689E+03 E0= -.80628689E+03  d E =0.673274E+02  mag=     0.0000
 BRION: g(F)=  0.217E+05 g(S)=  0.000E+00 retain N=  2 mean eig= 0.07
 eig:   0.071  0.071
 bond charge predicted
       N       E                     dE             d eps       ncg     rms          rms(c)
DAV:   1    -0.877156121715E+03   -0.70869E+02   -0.10981E+03  1728   0.228E+01    0.175E+01
DAV:   2    -0.876164958647E+03    0.99116E+00   -0.52822E+01  2128   0.747E+00    0.995E+00
DAV:   3    -0.874353665179E+03    0.18113E+01   -0.52780E+00  2256   0.242E+00    0.452E+00
DAV:   4    -0.874004878869E+03    0.34879E+00   -0.17530E+00  2112   0.126E+00    0.191E+00
DAV:   5    -0.873964653850E+03    0.40225E-01   -0.31231E-01  2032   0.719E-01    0.678E-01
DAV:   6    -0.873959094068E+03    0.55598E-02   -0.40379E-02  2112   0.332E-01    0.303E-01
DAV:   7    -0.873960866648E+03   -0.17726E-02   -0.70275E-03  1984   0.122E-01    0.101E-01
DAV:   8    -0.873961751558E+03   -0.88491E-03   -0.16600E-03  2048   0.632E-02    0.613E-02
DAV:   9    -0.873962591285E+03   -0.83973E-03   -0.40693E-04  2024   0.445E-02    0.426E-02
DAV:  10    -0.873962897549E+03   -0.30626E-03   -0.17107E-04  1944   0.344E-02    0.199E-02
DAV:  11    -0.873963030786E+03   -0.13324E-03   -0.16332E-04  2056   0.284E-02    0.122E-02
DAV:  12    -0.873963091363E+03   -0.60577E-04   -0.12965E-04  1752   0.233E-02    0.116E-02
DAV:  13    -0.873963104290E+03   -0.12927E-04   -0.12376E-04  1744   0.218E-02    0.722E-03
DAV:  14    -0.873963093743E+03    0.10547E-04   -0.84688E-05  1568   0.170E-02    0.386E-03
DAV:  15    -0.873963081222E+03    0.12521E-04   -0.20531E-05  1576   0.875E-03    0.184E-03
DAV:  16    -0.873963083436E+03   -0.22141E-05   -0.15151E-06  1432   0.298E-03
   7 F= -.87396308E+03 E0= -.87396308E+03  d E =-.676762E+02  mag=    -0.0000
 BRION: g(F)=  0.377E+01 g(S)=  0.000E+00 retain N=  1 mean eig= 0.01
 eig:   0.014
 bond charge predicted
       N       E                     dE             d eps       ncg     rms          rms(c)
DAV:   1    -0.872982723755E+03    0.98036E+00   -0.16671E+02  1728   0.202E+01    0.345E+00
DAV:   2    -0.873124837480E+03   -0.14211E+00   -0.57983E+00  2112   0.388E+00    0.212E+00
DAV:   3    -0.872999215678E+03    0.12562E+00   -0.25050E-01  2208   0.121E+00    0.128E+00
DAV:   4    -0.872924137334E+03    0.75078E-01   -0.14296E-01  2176   0.100E+00    0.402E-01
DAV:   5    -0.872910471216E+03    0.13666E-01   -0.60000E-02  2384   0.721E-01    0.235E-01
DAV:   6    -0.872905832647E+03    0.46386E-02   -0.18334E-02  2304   0.321E-01    0.193E-01
DAV:   7    -0.872899924229E+03    0.59084E-02   -0.34612E-03  2400   0.308E-01    0.902E-02
DAV:   8    -0.872896672902E+03    0.32513E-02   -0.27169E-03  2336   0.365E-01    0.997E-02
DAV:   9    -0.872896973174E+03   -0.30027E-03   -0.68495E-03  2224   0.218E-01    0.762E-02
DAV:  10    -0.872897093976E+03   -0.12080E-03   -0.15733E-03  1984   0.758E-02    0.694E-02
DAV:  11    -0.872897096192E+03   -0.22160E-05   -0.38378E-04  2096   0.419E-02    0.275E-02
DAV:  12    -0.872897287909E+03   -0.19172E-03   -0.30522E-04  2176   0.441E-02    0.349E-02
DAV:  13    -0.872897290807E+03   -0.28974E-05   -0.12260E-04  1968   0.260E-02    0.179E-02
DAV:  14    -0.872897301944E+03   -0.11137E-04   -0.65334E-05  1888   0.165E-02    0.619E-03
DAV:  15    -0.872897325049E+03   -0.23104E-04   -0.15577E-05  1512   0.813E-03    0.376E-03
DAV:  16    -0.872897343458E+03   -0.18410E-04   -0.29703E-05  1616   0.948E-03    0.236E-03
DAV:  17    -0.872897340225E+03    0.32333E-05   -0.18933E-05  1552   0.694E-03
   8 F= -.87289734E+03 E0= -.87289734E+03  d E =0.106574E+01  mag=     0.0000
 BRION: g(F)=  0.192E+02 g(S)=  0.000E+00 retain N=  2 mean eig= 0.08
 eig:   0.011  0.153
 bond charge predicted
       N       E                     dE             d eps       ncg     rms          rms(c)
DAV:   1    -0.874232837313E+03   -0.13355E+01   -0.10692E+02  1728   0.169E+01    0.248E+00
DAV:   2    -0.874337332664E+03   -0.10450E+00   -0.36293E+00  2112   0.311E+00    0.163E+00
DAV:   3    -0.874247829134E+03    0.89504E-01   -0.15782E-01  2208   0.101E+00    0.995E-01
DAV:   4    -0.874190390611E+03    0.57439E-01   -0.87277E-02  2272   0.908E-01    0.304E-01
DAV:   5    -0.874180231471E+03    0.10159E-01   -0.50677E-02  2400   0.645E-01    0.207E-01
DAV:   6    -0.874176813548E+03    0.34179E-02   -0.15411E-02  2256   0.288E-01    0.174E-01
DAV:   7    -0.874171478070E+03    0.53355E-02   -0.41650E-03  2368   0.315E-01    0.856E-02
DAV:   8    -0.874169425612E+03    0.20525E-02   -0.21828E-03  2336   0.307E-01    0.871E-02
DAV:   9    -0.874169852299E+03   -0.42669E-03   -0.56546E-03  2160   0.179E-01    0.757E-02
DAV:  10    -0.874169902354E+03   -0.50055E-04   -0.97029E-04  2080   0.562E-02    0.630E-02
DAV:  11    -0.874169901252E+03    0.11022E-05   -0.44059E-04  2176   0.414E-02    0.248E-02
DAV:  12    -0.874170045464E+03   -0.14421E-03   -0.14720E-04  2224   0.318E-02    0.326E-02
DAV:  13    -0.874170057105E+03   -0.11641E-04   -0.62900E-05  2024   0.203E-02    0.153E-02
DAV:  14    -0.874170070424E+03   -0.13319E-04   -0.39122E-05  1936   0.125E-02    0.623E-03
DAV:  15    -0.874170085301E+03   -0.14878E-04   -0.53447E-06  1440   0.492E-03    0.348E-03
DAV:  16    -0.874170095357E+03   -0.10056E-04   -0.41518E-06  1424   0.529E-03    0.283E-03
DAV:  17    -0.874170098375E+03   -0.30182E-05   -0.46264E-06  1544   0.404E-03
   9 F= -.87417010E+03 E0= -.87417010E+03  d E =-.127276E+01  mag=    -0.0000
 BRION: g(F)=  0.343E+01 g(S)=  0.000E+00 retain N=  1 mean eig= 0.20
 eig:   0.197
 bond charge predicted
       N       E                     dE             d eps       ncg     rms          rms(c)
DAV:   1    -0.831084420328E+03    0.43086E+02   -0.85079E+02  1888   0.281E+01    0.122E+01
DAV:   2    -0.833182310487E+03   -0.20979E+01   -0.59636E+01  2048   0.542E+00    0.873E+00
DAV:   3    -0.831457053158E+03    0.17253E+01   -0.65432E+00  2160   0.257E+00    0.201E+00
DAV:   4    -0.831360284670E+03    0.96768E-01   -0.61491E-01  2096   0.104E+00    0.952E-01
DAV:   5    -0.831312670607E+03    0.47614E-01   -0.94486E-02  2336   0.621E-01    0.474E-01
DAV:   6    -0.831298782346E+03    0.13888E-01   -0.19279E-02  2288   0.421E-01    0.234E-01
DAV:   7    -0.831287176330E+03    0.11606E-01   -0.11584E-02  2800   0.610E-01    0.138E-01
DAV:   8    -0.831286448655E+03    0.72768E-03   -0.12513E-02  2112   0.249E-01    0.117E-01
DAV:   9    -0.831286277801E+03    0.17085E-03   -0.18601E-03  2048   0.932E-02    0.521E-02
DAV:  10    -0.831286177701E+03    0.10010E-03   -0.35354E-04  2240   0.112E-01    0.371E-02
DAV:  11    -0.831286312704E+03   -0.13500E-03   -0.47843E-04  1984   0.635E-02    0.205E-02
DAV:  12    -0.831286422161E+03   -0.10946E-03   -0.28801E-04  2048   0.373E-02    0.175E-02
DAV:  13    -0.831286450862E+03   -0.28701E-04   -0.51133E-05  1832   0.184E-02    0.123E-02
DAV:  14    -0.831286481674E+03   -0.30811E-04   -0.42630E-05  1712   0.136E-02    0.405E-03
DAV:  15    -0.831286492324E+03   -0.10650E-04   -0.62223E-05  1696   0.132E-02    0.356E-03
DAV:  16    -0.831286481090E+03    0.11234E-04   -0.28276E-05  1456   0.909E-03    0.246E-03
DAV:  17    -0.831286483758E+03   -0.26685E-05   -0.97763E-06  1440   0.582E-03
  10 F= -.83128648E+03 E0= -.83128648E+03  d E =0.428836E+02  mag=    -0.0000
 BRION: g(F)=  0.974E+04 g(S)=  0.000E+00 retain N=  2 mean eig= 0.09
 eig:   0.140  0.035
 bond charge predicted
       N       E                     dE             d eps       ncg     rms          rms(c)
DAV:   1    -0.876478631385E+03   -0.45192E+02   -0.82660E+02  1744   0.179E+01    0.150E+01
DAV:   2    -0.875810942753E+03    0.66769E+00   -0.40335E+01  2032   0.575E+00    0.829E+00
DAV:   3    -0.874473969100E+03    0.13370E+01   -0.30261E+00  2272   0.215E+00    0.382E+00
DAV:   4    -0.874190169075E+03    0.28380E+00   -0.11747E+00  2304   0.131E+00    0.149E+00
DAV:   5    -0.874162116707E+03    0.28052E-01   -0.24531E-01  2128   0.757E-01    0.587E-01
DAV:   6    -0.874154558716E+03    0.75580E-02   -0.27178E-02  2032   0.294E-01    0.239E-01
DAV:   7    -0.874153623886E+03    0.93483E-03   -0.68199E-03  2288   0.273E-01    0.103E-01
DAV:   8    -0.874153687160E+03   -0.63274E-04   -0.30647E-03  2160   0.174E-01    0.686E-02
DAV:   9    -0.874154125668E+03   -0.43851E-03   -0.14180E-03  2568   0.224E-01    0.469E-02
DAV:  10    -0.874154390844E+03   -0.26518E-03   -0.14637E-03  2112   0.770E-02    0.448E-02
DAV:  11    -0.874154523809E+03   -0.13296E-03   -0.27715E-04  1968   0.322E-02    0.205E-02
DAV:  12    -0.874154603132E+03   -0.79323E-04   -0.28679E-05  1792   0.332E-02    0.175E-02
DAV:  13    -0.874154640879E+03   -0.37747E-04   -0.64764E-05  1952   0.255E-02    0.544E-03
DAV:  14    -0.874154656957E+03   -0.16078E-04   -0.36727E-05  1832   0.119E-02    0.527E-03
DAV:  15    -0.874154661577E+03   -0.46197E-05   -0.12410E-05  1472   0.741E-03
  11 F= -.87415466E+03 E0= -.87415466E+03  d E =-.428682E+02  mag=    -0.0000
 BRION: g(F)=  0.289E+01 g(S)=  0.000E+00 retain N=  1 mean eig= 0.02
 eig:   0.018
 bond charge predicted
       N       E                     dE             d eps       ncg     rms          rms(c)
DAV:   1    -0.873338634204E+03    0.81602E+00   -0.12877E+02  1728   0.185E+01    0.250E+00
DAV:   2    -0.873513243206E+03   -0.17461E+00   -0.42030E+00  2128   0.332E+00    0.175E+00
DAV:   3    -0.873420800289E+03    0.92443E-01   -0.15255E-01  2144   0.932E-01    0.110E+00
DAV:   4    -0.873357699897E+03    0.63100E-01   -0.10926E-01  2160   0.910E-01    0.330E-01
DAV:   5    -0.873350223170E+03    0.74767E-02   -0.54061E-02  2240   0.584E-01    0.242E-01
DAV:   6    -0.873347220653E+03    0.30025E-02   -0.16529E-02  2128   0.280E-01    0.179E-01
DAV:   7    -0.873343349491E+03    0.38712E-02   -0.24002E-03  2224   0.220E-01    0.869E-02
DAV:   8    -0.873340974200E+03    0.23753E-02   -0.22176E-03  2352   0.303E-01    0.634E-02
DAV:   9    -0.873341138804E+03   -0.16460E-03   -0.35193E-03  2160   0.150E-01    0.505E-02
DAV:  10    -0.873341286104E+03   -0.14730E-03   -0.10381E-03  1896   0.559E-02    0.484E-02
DAV:  11    -0.873341413825E+03   -0.12772E-03   -0.34815E-04  1960   0.517E-02    0.190E-02
DAV:  12    -0.873341555123E+03   -0.14130E-03   -0.45929E-04  1912   0.416E-02    0.210E-02
DAV:  13    -0.873341529763E+03    0.25361E-04   -0.34675E-04  1800   0.334E-02    0.116E-02
DAV:  14    -0.873341491422E+03    0.38341E-04   -0.86350E-05  1744   0.168E-02    0.589E-03
DAV:  15    -0.873341509876E+03   -0.18454E-04   -0.13124E-05  1624   0.753E-03    0.527E-03
DAV:  16    -0.873341522891E+03   -0.13015E-04   -0.15004E-05  1608   0.756E-03    0.472E-03
DAV:  17    -0.873341526466E+03   -0.35752E-05   -0.33402E-06  1520   0.403E-03
  12 F= -.87334153E+03 E0= -.87334153E+03  d E =0.813135E+00  mag=     0.0000
 BRION: g(F)=  0.117E+02 g(S)=  0.000E+00 retain N=  2 mean eig= 0.11
 eig:   0.016  0.213
 bond charge predicted
       N       E                     dE             d eps       ncg     rms          rms(c)
DAV:   1    -0.874317312974E+03   -0.97579E+00   -0.80215E+01  1728   0.148E+01    0.186E+00
DAV:   2    -0.874412313467E+03   -0.95000E-01   -0.25090E+00  2112   0.261E+00    0.132E+00
DAV:   3    -0.874348588626E+03    0.63725E-01   -0.94961E-02  2160   0.794E-01    0.826E-01
DAV:   4    -0.874304136978E+03    0.44452E-01   -0.63424E-02  2144   0.793E-01    0.249E-01
DAV:   5    -0.874298189539E+03    0.59474E-02   -0.41641E-02  2288   0.526E-01    0.196E-01
DAV:   6    -0.874295620597E+03    0.25689E-02   -0.12302E-02  2160   0.252E-01    0.157E-01
DAV:   7    -0.874291946057E+03    0.36745E-02   -0.21390E-03  2368   0.247E-01    0.713E-02
DAV:   8    -0.874290493407E+03    0.14526E-02   -0.17763E-03  2320   0.274E-01    0.498E-02
DAV:   9    -0.874290927322E+03   -0.43391E-03   -0.32669E-03  2048   0.127E-01    0.491E-02
DAV:  10    -0.874290992495E+03   -0.65173E-04   -0.46208E-04  2088   0.365E-02    0.457E-02
DAV:  11    -0.874291051814E+03   -0.59320E-04   -0.15205E-04  2152   0.298E-02    0.237E-02
DAV:  12    -0.874291226607E+03   -0.17479E-03   -0.23218E-04  2112   0.382E-02    0.389E-02
DAV:  13    -0.874291221053E+03    0.55537E-05   -0.98081E-05  2016   0.243E-02
  13 F= -.87429122E+03 E0= -.87429122E+03  d E =-.949695E+00  mag=     0.0000
 BRION: g(F)=  0.229E+01 g(S)=  0.000E+00 retain N=  1 mean eig= 0.22
 eig:   0.218
 bond charge predicted
       N       E                     dE             d eps       ncg     rms          rms(c)
DAV:   1    -0.852154443695E+03    0.22137E+02   -0.55233E+02  1760   0.231E+01    0.910E+00
DAV:   2    -0.853487857717E+03   -0.13334E+01   -0.33605E+01  1968   0.412E+00    0.672E+00
DAV:   3    -0.852438062727E+03    0.10498E+01   -0.26278E+00  2064   0.167E+00    0.164E+00
DAV:   4    -0.852375681229E+03    0.62381E-01   -0.28564E-01  2240   0.711E-01    0.743E-01
DAV:   5    -0.852352111750E+03    0.23569E-01   -0.30525E-02  2208   0.339E-01    0.310E-01
DAV:   6    -0.852344489314E+03    0.76224E-02   -0.66570E-03  2336   0.262E-01    0.144E-01
DAV:   7    -0.852341750543E+03    0.27388E-02   -0.47673E-03  2192   0.225E-01    0.730E-02
DAV:   8    -0.852341537570E+03    0.21297E-03   -0.24130E-03  2016   0.123E-01    0.487E-02
DAV:   9    -0.852341499212E+03    0.38358E-04   -0.36239E-04  1992   0.440E-02    0.281E-02
DAV:  10    -0.852341552883E+03   -0.53671E-04   -0.19640E-04  1888   0.344E-02    0.144E-02
DAV:  11    -0.852341590049E+03   -0.37166E-04   -0.17586E-04  1800   0.295E-02    0.101E-02
DAV:  12    -0.852341663574E+03   -0.73526E-04   -0.27902E-04  1736   0.362E-02    0.687E-03
DAV:  13    -0.852341605253E+03    0.58321E-04   -0.20488E-04  1768   0.279E-02    0.786E-03
DAV:  14    -0.852341608231E+03   -0.29781E-05   -0.17861E-05  1624   0.932E-03
  14 F= -.85234161E+03 E0= -.85234161E+03  d E =0.219496E+02  mag=    -0.0000
 BRION: g(F)=  0.308E+04 g(S)=  0.000E+00 retain N=  2 mean eig= 0.11
 eig:   0.198  0.031
 bond charge predicted
       N       E                     dE             d eps       ncg     rms          rms(c)
DAV:   1    -0.875301424486E+03   -0.22960E+02   -0.52424E+02  1728   0.130E+01    0.115E+01
DAV:   2    -0.875136519009E+03    0.16491E+00   -0.25299E+01  2000   0.384E+00    0.617E+00
DAV:   3    -0.874382124078E+03    0.75439E+00   -0.14117E+00  2288   0.152E+00    0.289E+00
DAV:   4    -0.874227668928E+03    0.15446E+00   -0.66838E-01  2160   0.815E-01    0.101E+00
DAV:   5    -0.874215673479E+03    0.11995E-01   -0.11424E-01  2032   0.420E-01    0.372E-01
DAV:   6    -0.874214293548E+03    0.13799E-02   -0.93938E-03  2000   0.141E-01    0.169E-01
DAV:   7    -0.874215252422E+03   -0.95887E-03   -0.34770E-03  2256   0.140E-01    0.764E-02
DAV:   8    -0.874215942441E+03   -0.69002E-03   -0.13687E-03  1936   0.107E-01    0.441E-02
DAV:   9    -0.874216496853E+03   -0.55441E-03   -0.62625E-04  2256   0.797E-02    0.326E-02
DAV:  10    -0.874216660783E+03   -0.16393E-03   -0.20160E-04  2064   0.292E-02    0.203E-02
DAV:  11    -0.874216823590E+03   -0.16281E-03   -0.18131E-04  1952   0.265E-02    0.156E-02
DAV:  12    -0.874216839653E+03   -0.16062E-04   -0.56690E-05  1808   0.177E-02    0.116E-02
DAV:  13    -0.874216923187E+03   -0.83535E-04   -0.13490E-04  1776   0.269E-02    0.102E-02
DAV:  14    -0.874216887101E+03    0.36087E-04   -0.10551E-04  1768   0.189E-02    0.803E-03
DAV:  15    -0.874216886662E+03    0.43860E-06   -0.22903E-05  1568   0.924E-03
  15 F= -.87421689E+03 E0= -.87421689E+03  d E =-.218753E+02  mag=    -0.0000
 BRION: g(F)=  0.255E+01 g(S)=  0.000E+00 retain N=  1 mean eig= 0.03
 eig:   0.025
 bond charge predicted
       N       E                     dE             d eps       ncg     rms          rms(c)
DAV:   1    -0.872804451244E+03    0.14124E+01   -0.21076E+02  1744   0.241E+01    0.286E+00
DAV:   2    -0.873146197543E+03   -0.34175E+00   -0.67900E+00  2112   0.421E+00    0.218E+00
DAV:   3    -0.872995137811E+03    0.15106E+00   -0.22956E-01  2176   0.118E+00    0.140E+00
DAV:   4    -0.872884018043E+03    0.11112E+00   -0.17074E-01  2152   0.119E+00    0.439E-01
DAV:   5    -0.872871882129E+03    0.12136E-01   -0.10041E-01  2272   0.782E-01    0.332E-01
DAV:   6    -0.872866339012E+03    0.55431E-02   -0.35170E-02  2224   0.453E-01    0.256E-01
DAV:   7    -0.872860213796E+03    0.61252E-02   -0.41128E-03  2304   0.317E-01    0.145E-01
DAV:   8    -0.872857263590E+03    0.29502E-02   -0.47085E-03  2368   0.398E-01    0.619E-02
DAV:   9    -0.872857931626E+03   -0.66804E-03   -0.60576E-03  2088   0.168E-01    0.728E-02
DAV:  10    -0.872858144587E+03   -0.21296E-03   -0.94742E-04  1912   0.547E-02    0.523E-02
DAV:  11    -0.872858647590E+03   -0.50300E-03   -0.65746E-04  2048   0.624E-02    0.390E-02
DAV:  12    -0.872858766269E+03   -0.11868E-03   -0.32057E-04  1960   0.350E-02    0.337E-02
DAV:  13    -0.872858858382E+03   -0.92113E-04   -0.30879E-04  1864   0.353E-02    0.199E-02
DAV:  14    -0.872858825868E+03    0.32514E-04   -0.22112E-04  1840   0.290E-02    0.133E-02
DAV:  15    -0.872858854864E+03   -0.28996E-04   -0.87647E-05  1816   0.181E-02    0.705E-03
DAV:  16    -0.872858865263E+03   -0.10399E-04   -0.43608E-05  1720   0.121E-02    0.562E-03
DAV:  17    -0.872858873011E+03   -0.77484E-05   -0.11951E-05  1584   0.648E-03
  16 F= -.87285887E+03 E0= -.87285887E+03  d E =0.135801E+01  mag=    -0.0000
 BRION: g(F)=  0.145E+02 g(S)=  0.000E+00 retain N=  2 mean eig= 0.13
 eig:   0.025  0.233
 bond charge predicted
       N       E                     dE             d eps       ncg     rms          rms(c)
DAV:   1    -0.874380658560E+03   -0.15218E+01   -0.13124E+02  1728   0.190E+01    0.222E+00
DAV:   2    -0.874552953196E+03   -0.17229E+00   -0.40210E+00  2144   0.331E+00    0.165E+00
DAV:   3    -0.874449399938E+03    0.10355E+00   -0.15131E-01  2176   0.101E+00    0.104E+00
DAV:   4    -0.874375026291E+03    0.74374E-01   -0.98482E-02  2224   0.100E+00    0.330E-01
DAV:   5    -0.874364490998E+03    0.10535E-01   -0.67391E-02  2320   0.681E-01    0.248E-01
DAV:   6    -0.874358911257E+03    0.55797E-02   -0.26738E-02  2224   0.451E-01    0.229E-01
DAV:   7    -0.874353523655E+03    0.53876E-02   -0.43663E-03  2336   0.335E-01    0.128E-01
DAV:   8    -0.874351430387E+03    0.20933E-02   -0.35662E-03  2448   0.331E-01    0.447E-02
DAV:   9    -0.874352002696E+03   -0.57231E-03   -0.48428E-03  2064   0.132E-01    0.702E-02
DAV:  10    -0.874352031063E+03   -0.28367E-04   -0.29072E-04  2112   0.296E-02    0.581E-02
DAV:  11    -0.874352218634E+03   -0.18757E-03   -0.50513E-04  2160   0.480E-02    0.403E-02
DAV:  12    -0.874352315564E+03   -0.96930E-04   -0.15029E-04  2216   0.302E-02    0.441E-02
DAV:  13    -0.874352316420E+03   -0.85637E-06   -0.13256E-04  2256   0.266E-02    0.233E-02
DAV:  14    -0.874352316358E+03    0.62646E-07   -0.52343E-05  1904   0.153E-02
  17 F= -.87435232E+03 E0= -.87435232E+03  d E =-.149344E+01  mag=    -0.0000
 BRION: g(F)=  0.152E+01 g(S)=  0.000E+00 retain N=  1 mean eig= 0.22
 eig:   0.220
 bond charge predicted
       N       E                     dE             d eps       ncg     rms          rms(c)
DAV:   1    -0.865191434015E+03    0.91609E+01   -0.31657E+02  1744   0.200E+01    0.615E+00
DAV:   2    -0.865838234032E+03   -0.64680E+00   -0.15411E+01  2016   0.358E+00    0.468E+00
DAV:   3    -0.865337639657E+03    0.50059E+00   -0.87859E-01  2144   0.131E+00    0.166E+00
DAV:   4    -0.865251483583E+03    0.86156E-01   -0.17374E-01  2400   0.849E-01    0.502E-01
DAV:   5    -0.865238278945E+03    0.13205E-01   -0.34800E-02  2256   0.447E-01    0.271E-01
DAV:   6    -0.865231929342E+03    0.63496E-02   -0.43554E-03  2288   0.252E-01    0.127E-01
DAV:   7    -0.865227545044E+03    0.43843E-02   -0.29082E-03  2528   0.311E-01    0.694E-02
DAV:   8    -0.865226871808E+03    0.67324E-03   -0.42470E-03  2040   0.256E-01    0.460E-02
DAV:   9    -0.865227147683E+03   -0.27588E-03   -0.35250E-03  1928   0.126E-01    0.674E-02
DAV:  10    -0.865227007324E+03    0.14036E-03   -0.31805E-04  2008   0.387E-02    0.565E-02
DAV:  11    -0.865227161096E+03   -0.15377E-03   -0.35740E-04  2112   0.485E-02    0.205E-02
DAV:  12    -0.865227105718E+03    0.55378E-04   -0.34473E-04  1984   0.507E-02    0.380E-02
DAV:  13    -0.865227186440E+03   -0.80721E-04   -0.18673E-04  1872   0.372E-02    0.173E-02
DAV:  14    -0.865227132348E+03    0.54092E-04   -0.26631E-04  1816   0.360E-02    0.105E-02
DAV:  15    -0.865227125457E+03    0.68909E-05   -0.44818E-05  1736   0.167E-02
  18 F= -.86522713E+03 E0= -.86522713E+03  d E =0.912519E+01  mag=    -0.0000
 BRION: g(F)=  0.701E+03 g(S)=  0.000E+00 retain N=  2 mean eig= 0.13
 eig:   0.220  0.041
 bond charge predicted
       N       E                     dE             d eps       ncg     rms          rms(c)
DAV:   1    -0.874577380764E+03   -0.93502E+01   -0.28239E+02  1728   0.944E+00    0.771E+00
DAV:   2    -0.874547041752E+03    0.30339E-01   -0.12057E+01  1920   0.250E+00    0.404E+00
DAV:   3    -0.874201496300E+03    0.34555E+00   -0.46298E-01  2352   0.104E+00    0.194E+00
DAV:   4    -0.874130209855E+03    0.71286E-01   -0.28769E-01  2160   0.611E-01    0.626E-01
DAV:   5    -0.874124629921E+03    0.55799E-02   -0.44565E-02  2064   0.297E-01    0.249E-01
DAV:   6    -0.874123801842E+03    0.82808E-03   -0.37833E-03  1968   0.118E-01    0.115E-01
DAV:   7    -0.874123940696E+03   -0.13885E-03   -0.17819E-03  2320   0.149E-01    0.589E-02
DAV:   8    -0.874124332114E+03   -0.39142E-03   -0.12987E-03  1984   0.130E-01    0.344E-02
DAV:   9    -0.874124600991E+03   -0.26888E-03   -0.80220E-04  2288   0.830E-02    0.348E-02
DAV:  10    -0.874124642351E+03   -0.41360E-04   -0.21773E-04  2032   0.302E-02    0.236E-02
DAV:  11    -0.874124786140E+03   -0.14379E-03   -0.26625E-04  2008   0.396E-02    0.188E-02
DAV:  12    -0.874124757525E+03    0.28614E-04   -0.12330E-04  1752   0.251E-02    0.161E-02
DAV:  13    -0.874124839144E+03   -0.81619E-04   -0.21617E-04  1744   0.330E-02    0.971E-03
DAV:  14    -0.874124775946E+03    0.63198E-04   -0.15752E-04  1824   0.258E-02    0.121E-02
DAV:  15    -0.874124771201E+03    0.47447E-05   -0.18077E-05  1576   0.918E-03
  19 F= -.87412477E+03 E0= -.87412477E+03  d E =-.889765E+01  mag=    -0.0000
 BRION: g(F)=  0.369E+01 g(S)=  0.000E+00 retain N=  1 mean eig= 0.04
 eig:   0.039
 bond charge predicted
       N       E                     dE             d eps       ncg     rms          rms(c)
DAV:   1    -0.870776269633E+03    0.33485E+01   -0.42860E+02  1808   0.325E+01    0.383E+00
DAV:   2    -0.871946137450E+03   -0.11699E+01   -0.17046E+01  2128   0.584E+00    0.310E+00
DAV:   3    -0.871677866472E+03    0.26827E+00   -0.46223E-01  2144   0.147E+00    0.205E+00
DAV:   4    -0.871437345082E+03    0.24052E+00   -0.38126E-01  2144   0.170E+00    0.697E-01
DAV:   5    -0.871415863559E+03    0.21482E-01   -0.20235E-01  2192   0.104E+00    0.551E-01
DAV:   6    -0.871403574909E+03    0.12289E-01   -0.85641E-02  2160   0.686E-01    0.360E-01
DAV:   7    -0.871392461437E+03    0.11113E-01   -0.10257E-02  2272   0.415E-01    0.233E-01
DAV:   8    -0.871384926331E+03    0.75351E-02   -0.92324E-03  2448   0.499E-01    0.823E-02
DAV:   9    -0.871384428753E+03    0.49758E-03   -0.85642E-03  2288   0.288E-01    0.113E-01
DAV:  10    -0.871384981513E+03   -0.55276E-03   -0.42216E-03  1952   0.123E-01    0.592E-02
DAV:  11    -0.871385296351E+03   -0.31484E-03   -0.74377E-04  2144   0.765E-02    0.332E-02
DAV:  12    -0.871385475388E+03   -0.17904E-03   -0.14028E-04  2080   0.310E-02    0.318E-02
DAV:  13    -0.871385620858E+03   -0.14547E-03   -0.23165E-04  1968   0.330E-02    0.201E-02
DAV:  14    -0.871385660214E+03   -0.39355E-04   -0.13791E-04  1952   0.248E-02    0.108E-02
DAV:  15    -0.871385693063E+03   -0.32850E-04   -0.77387E-05  1728   0.170E-02    0.789E-03
DAV:  16    -0.871385718232E+03   -0.25168E-04   -0.72407E-05  1728   0.159E-02    0.610E-03
DAV:  17    -0.871385713563E+03    0.46689E-05   -0.39543E-05  1768   0.115E-02
  20 F= -.87138571E+03 E0= -.87138571E+03  d E =0.273906E+01  mag=    -0.0000
 BRION: g(F)=  0.219E+02 g(S)=  0.000E+00 retain N=  2 mean eig= 0.15
 eig:   0.039  0.262
 bond charge predicted
       N       E                     dE             d eps       ncg     rms          rms(c)
DAV:   1    -0.874062150405E+03   -0.26764E+01   -0.25671E+02  1728   0.254E+01    0.298E+00
DAV:   2    -0.874533191813E+03   -0.47104E+00   -0.85844E+00  2112   0.445E+00    0.230E+00
DAV:   3    -0.874362254646E+03    0.17094E+00   -0.25684E-01  2160   0.124E+00    0.156E+00
DAV:   4    -0.874202119128E+03    0.16014E+00   -0.24995E-01  2160   0.154E+00    0.525E-01
DAV:   5    -0.874182814237E+03    0.19305E-01   -0.14844E-01  2240   0.965E-01    0.468E-01
DAV:   6    -0.874174682150E+03    0.81321E-02   -0.71092E-02  2144   0.584E-01    0.321E-01
DAV:   7    -0.874160400528E+03    0.14282E-01   -0.83897E-03  2400   0.538E-01    0.184E-01
DAV:   8    -0.874155051431E+03    0.53491E-02   -0.86649E-03  2368   0.536E-01    0.676E-02
DAV:   9    -0.874156115829E+03   -0.10644E-02   -0.10987E-02  2224   0.250E-01    0.865E-02
DAV:  10    -0.874156393771E+03   -0.27794E-03   -0.19794E-03  2000   0.784E-02    0.845E-02
DAV:  11    -0.874156531563E+03   -0.13779E-03   -0.56018E-04  2208   0.537E-02    0.492E-02
DAV:  12    -0.874157323893E+03   -0.79233E-03   -0.98774E-04  2224   0.807E-02    0.895E-02
DAV:  13    -0.874157240609E+03    0.83284E-04   -0.38317E-04  2352   0.550E-02    0.453E-02
DAV:  14    -0.874157263382E+03   -0.22774E-04   -0.19128E-04  1952   0.259E-02    0.207E-02
DAV:  15    -0.874157313088E+03   -0.49705E-04   -0.29294E-05  1712   0.130E-02    0.120E-02
DAV:  16    -0.874157360922E+03   -0.47834E-04   -0.38861E-05  1760   0.150E-02    0.794E-03
DAV:  17    -0.874157370886E+03   -0.99647E-05   -0.22077E-05  1688   0.953E-03
  21 F= -.87415737E+03 E0= -.87415737E+03  d E =-.277166E+01  mag=    -0.0000
 BRION: g(F)=  0.236E+01 g(S)=  0.000E+00 retain N=  1 mean eig= 0.25
 eig:   0.246
 bond charge predicted
       N       E                     dE             d eps       ncg     rms          rms(c)
DAV:   1    -0.869221105590E+03    0.49363E+01   -0.34405E+02  1728   0.271E+01    0.489E+00
DAV:   2    -0.869946080123E+03   -0.72497E+00   -0.13920E+01  2112   0.505E+00    0.393E+00
DAV:   3    -0.869622829016E+03    0.32325E+00   -0.52777E-01  2144   0.146E+00    0.209E+00
DAV:   4    -0.869482489083E+03    0.14034E+00   -0.35142E-01  2224   0.123E+00    0.550E-01
DAV:   5    -0.869472497911E+03    0.99912E-02   -0.82574E-02  2336   0.654E-01    0.317E-01
DAV:   6    -0.869469471397E+03    0.30265E-02   -0.21204E-02  2128   0.294E-01    0.230E-01
DAV:   7    -0.869466579303E+03    0.28921E-02   -0.24453E-03  2192   0.167E-01    0.119E-01
DAV:   8    -0.869464131151E+03    0.24482E-02   -0.33384E-03  2256   0.265E-01    0.112E-01
DAV:   9    -0.869463992309E+03    0.13884E-03   -0.29991E-03  2160   0.133E-01    0.502E-02
DAV:  10    -0.869464087571E+03   -0.95262E-04   -0.90950E-04  1936   0.594E-02    0.495E-02
DAV:  11    -0.869464127415E+03   -0.39844E-04   -0.16137E-04  2008   0.586E-02    0.242E-02
DAV:  12    -0.869464211264E+03   -0.83849E-04   -0.33612E-04  1920   0.402E-02    0.128E-02
DAV:  13    -0.869464237141E+03   -0.25877E-04   -0.22049E-04  1816   0.281E-02    0.996E-03
DAV:  14    -0.869464224002E+03    0.13139E-04   -0.11343E-04  1688   0.189E-02    0.547E-03
DAV:  15    -0.869464246557E+03   -0.22555E-04   -0.77470E-05  1664   0.148E-02    0.395E-03
DAV:  16    -0.869464237394E+03    0.91631E-05   -0.59528E-05  1632   0.129E-02
  22 F= -.86946424E+03 E0= -.86946424E+03  d E =0.469313E+01  mag=    -0.0000
 BRION: g(F)=  0.164E+03 g(S)=  0.000E+00 retain N=  2 mean eig= 0.16
 eig:   0.278  0.050
 bond charge predicted
       N       E                     dE             d eps       ncg     rms          rms(c)
DAV:   1    -0.873426466564E+03   -0.39622E+01   -0.28325E+02  1728   0.163E+01    0.630E+00
DAV:   2    -0.873819851861E+03   -0.39339E+00   -0.12588E+01  2016   0.338E+00    0.352E+00
DAV:   3    -0.873559940109E+03    0.25991E+00   -0.40785E-01  2160   0.112E+00    0.179E+00
DAV:   4    -0.873490936570E+03    0.69004E-01   -0.21418E-01  2096   0.707E-01    0.515E-01
DAV:   5    -0.873485841196E+03    0.50954E-02   -0.43178E-02  2112   0.360E-01    0.253E-01
DAV:   6    -0.873485539952E+03    0.30124E-03   -0.54527E-03  1968   0.139E-01    0.140E-01
DAV:   7    -0.873485638540E+03   -0.98588E-04   -0.16299E-03  2208   0.139E-01    0.526E-02
DAV:   8    -0.873486002261E+03   -0.36372E-03   -0.80205E-04  2064   0.764E-02    0.380E-02
DAV:   9    -0.873486347624E+03   -0.34536E-03   -0.32936E-04  2176   0.626E-02    0.226E-02
DAV:  10    -0.873486497033E+03   -0.14941E-03   -0.18905E-04  2144   0.357E-02    0.181E-02
DAV:  11    -0.873486558913E+03   -0.61880E-04   -0.66669E-05  2032   0.191E-02    0.120E-02
DAV:  12    -0.873486594246E+03   -0.35333E-04   -0.15035E-05  1552   0.110E-02    0.548E-03
DAV:  13    -0.873486613380E+03   -0.19134E-04   -0.18043E-05  1648   0.958E-03    0.392E-03
DAV:  14    -0.873486623853E+03   -0.10473E-04   -0.18251E-05  1584   0.902E-03    0.229E-03
DAV:  15    -0.873486623985E+03   -0.13167E-06   -0.14474E-05  1536   0.656E-03
  23 F= -.87348662E+03 E0= -.87348662E+03  d E =-.402239E+01  mag=     0.0000
 BRION: g(F)=  0.114E+02 g(S)=  0.000E+00 retain N=  1 mean eig= 0.08
 eig:   0.077
 bond charge predicted
       N       E                     dE             d eps       ncg     rms          rms(c)
DAV:   1    -0.865195699536E+03    0.82909E+01   -0.96784E+02  1840   0.489E+01    0.644E+00
DAV:   2    -0.868690964095E+03   -0.34953E+01   -0.47843E+01  2128   0.969E+00    0.540E+00
DAV:   3    -0.868060172763E+03    0.63079E+00   -0.13037E+00  2160   0.228E+00    0.347E+00
DAV:   4    -0.867573730384E+03    0.48644E+00   -0.10470E+00  2160   0.235E+00    0.114E+00
DAV:   5    -0.867541240414E+03    0.32490E-01   -0.33741E-01  2176   0.127E+00    0.701E-01
DAV:   6    -0.867526776417E+03    0.14464E-01   -0.10261E-01  2160   0.702E-01    0.423E-01
DAV:   7    -0.867515388129E+03    0.11388E-01   -0.10189E-02  2192   0.370E-01    0.234E-01
DAV:   8    -0.867508738372E+03    0.66498E-02   -0.12520E-02  2384   0.488E-01    0.156E-01
DAV:   9    -0.867507945170E+03    0.79320E-03   -0.73435E-03  2272   0.339E-01    0.112E-01
DAV:  10    -0.867509707583E+03   -0.17624E-02   -0.83231E-03  1968   0.188E-01    0.114E-01
DAV:  11    -0.867509928132E+03   -0.22055E-03   -0.70587E-04  2304   0.772E-02    0.547E-02
DAV:  12    -0.867510573026E+03   -0.64489E-03   -0.57873E-04  2160   0.741E-02    0.198E-02
DAV:  13    -0.867510722869E+03   -0.14984E-03   -0.26788E-04  2080   0.340E-02    0.146E-02
DAV:  14    -0.867510850080E+03   -0.12721E-03   -0.35582E-05  1760   0.142E-02    0.882E-03
DAV:  15    -0.867510946434E+03   -0.96354E-04   -0.17526E-05  1600   0.850E-03    0.525E-03
DAV:  16    -0.867511016368E+03   -0.69934E-04   -0.26707E-05  1712   0.968E-03    0.297E-03
DAV:  17    -0.867511025558E+03   -0.91900E-05   -0.20043E-05  1720   0.771E-03
  24 F= -.86751103E+03 E0= -.86751103E+03  d E =0.597560E+01  mag=    -0.0000
 BRION: g(F)=  0.708E+02 g(S)=  0.000E+00 retain N=  2 mean eig= 0.07
 eig:   0.074  0.074
 bond charge predicted
       N       E                     dE             d eps       ncg     rms          rms(c)
DAV:   1    -0.872746042400E+03   -0.52350E+01   -0.60678E+02  1728   0.375E+01    0.547E+00
DAV:   2    -0.874409614536E+03   -0.16636E+01   -0.26782E+01  2112   0.688E+00    0.429E+00
DAV:   3    -0.874018560006E+03    0.39105E+00   -0.76401E-01  2192   0.175E+00    0.284E+00
DAV:   4    -0.873687541708E+03    0.33102E+00   -0.98440E-01  2128   0.220E+00    0.107E+00
DAV:   5    -0.873656523141E+03    0.31019E-01   -0.28441E-01  2240   0.121E+00    0.717E-01
DAV:   6    -0.873643644043E+03    0.12879E-01   -0.11969E-01  2120   0.687E-01    0.379E-01
DAV:   7    -0.873629451148E+03    0.14193E-01   -0.10499E-02  2320   0.451E-01    0.211E-01
DAV:   8    -0.873620957095E+03    0.84941E-02   -0.96959E-03  2400   0.535E-01    0.100E-01
DAV:   9    -0.873620331355E+03    0.62574E-03   -0.10052E-02  2288   0.353E-01    0.120E-01
DAV:  10    -0.873621317559E+03   -0.98620E-03   -0.74305E-03  1952   0.154E-01    0.894E-02
DAV:  11    -0.873621395766E+03   -0.78207E-04   -0.53784E-04  2224   0.560E-02    0.493E-02
DAV:  12    -0.873621872851E+03   -0.47708E-03   -0.45695E-04  2128   0.648E-02    0.379E-02
DAV:  13    -0.873621910267E+03   -0.37416E-04   -0.21341E-04  2112   0.377E-02    0.175E-02
DAV:  14    -0.873621966046E+03   -0.55780E-04   -0.12667E-04  1920   0.249E-02    0.193E-02
DAV:  15    -0.873622003316E+03   -0.37270E-04   -0.43969E-05  1872   0.152E-02    0.922E-03
DAV:  16    -0.873622022915E+03   -0.19599E-04   -0.37715E-05  1680   0.125E-02    0.712E-03
DAV:  17    -0.873622034094E+03   -0.11178E-04   -0.35517E-05  1648   0.109E-02    0.507E-03
DAV:  18    -0.873622028989E+03    0.51049E-05   -0.28039E-05  1544   0.918E-03
  25 F= -.87362203E+03 E0= -.87362203E+03  d E =-.611100E+01  mag=     0.0000
 BRION: g(F)=  0.500E+01 g(S)=  0.000E+00 retain N=  1 mean eig= 0.18
 eig:   0.180
 bond charge predicted
       N       E                     dE             d eps       ncg     rms          rms(c)
DAV:   1    -0.869685369833E+03    0.39367E+01   -0.43565E+02  1728   0.307E+01    0.523E+00
DAV:   2    -0.870784959087E+03   -0.10996E+01   -0.19645E+01  2112   0.608E+00    0.419E+00
DAV:   3    -0.870427317764E+03    0.35764E+00   -0.76970E-01  2128   0.184E+00    0.236E+00
DAV:   4    -0.870222396326E+03    0.20492E+00   -0.47499E-01  2128   0.161E+00    0.708E-01
DAV:   5    -0.870197572050E+03    0.24824E-01   -0.15852E-01  2304   0.103E+00    0.453E-01
DAV:   6    -0.870189493888E+03    0.80782E-02   -0.61351E-02  2160   0.561E-01    0.349E-01
DAV:   7    -0.870181117585E+03    0.83763E-02   -0.76529E-03  2320   0.327E-01    0.187E-01
DAV:   8    -0.870173751690E+03    0.73659E-02   -0.79307E-03  2320   0.491E-01    0.180E-01
DAV:   9    -0.870172829833E+03    0.92186E-03   -0.74343E-03  2272   0.268E-01    0.109E-01
DAV:  10    -0.870173387486E+03   -0.55765E-03   -0.53276E-03  1936   0.132E-01    0.840E-02
DAV:  11    -0.870173401208E+03   -0.13722E-04   -0.40102E-04  2176   0.750E-02    0.407E-02
DAV:  12    -0.870173661242E+03   -0.26003E-03   -0.27074E-04  2176   0.631E-02    0.207E-02
DAV:  13    -0.870173759302E+03   -0.98060E-04   -0.25830E-04  2096   0.335E-02    0.160E-02
DAV:  14    -0.870173781522E+03   -0.22219E-04   -0.35770E-05  1768   0.135E-02    0.124E-02
DAV:  15    -0.870173804423E+03   -0.22902E-04   -0.20199E-05  1544   0.852E-03    0.603E-03
DAV:  16    -0.870173823670E+03   -0.19247E-04   -0.41972E-05  1664   0.120E-02    0.576E-03
DAV:  17    -0.870173823664E+03    0.65120E-08   -0.36498E-05  1520   0.103E-02
  26 F= -.87017382E+03 E0= -.87017382E+03  d E =0.344821E+01  mag=     0.0000
 BRION: g(F)=  0.787E+02 g(S)=  0.000E+00 retain N=  2 mean eig= 0.17
 eig:   0.275  0.057
 bond charge predicted
       N       E                     dE             d eps       ncg     rms          rms(c)
DAV:   1    -0.873298971420E+03   -0.31251E+01   -0.38370E+02  1760   0.287E+01    0.388E+00
DAV:   2    -0.874469622526E+03   -0.11707E+01   -0.16744E+01  2112   0.532E+00    0.341E+00
DAV:   3    -0.874193367066E+03    0.27626E+00   -0.49795E-01  2144   0.131E+00    0.224E+00
DAV:   4    -0.873963118746E+03    0.23025E+00   -0.33623E-01  2160   0.143E+00    0.844E-01
DAV:   5    -0.873936648883E+03    0.26470E-01   -0.18299E-01  2176   0.987E-01    0.563E-01
DAV:   6    -0.873928973455E+03    0.76754E-02   -0.96869E-02  2112   0.671E-01    0.373E-01
DAV:   7    -0.873921166074E+03    0.78074E-02   -0.97324E-03  2176   0.336E-01    0.215E-01
DAV:   8    -0.873917473591E+03    0.36925E-02   -0.54873E-03  2288   0.330E-01    0.100E-01
DAV:   9    -0.873916841515E+03    0.63208E-03   -0.48782E-03  2240   0.243E-01    0.611E-02
DAV:  10    -0.873917359025E+03   -0.51751E-03   -0.28022E-03  2016   0.107E-01    0.648E-02
DAV:  11    -0.873917389277E+03   -0.30252E-04   -0.19646E-04  2128   0.264E-02    0.383E-02
DAV:  12    -0.873917691286E+03   -0.30201E-03   -0.34245E-04  2160   0.543E-02    0.275E-02
DAV:  13    -0.873917728015E+03   -0.36730E-04   -0.71792E-05  2000   0.207E-02    0.194E-02
DAV:  14    -0.873917787152E+03   -0.59137E-04   -0.10917E-04  1936   0.234E-02    0.126E-02
DAV:  15    -0.873917817197E+03   -0.30045E-04   -0.16006E-05  1600   0.102E-02    0.992E-03
DAV:  16    -0.873917836760E+03   -0.19563E-04   -0.16212E-05  1592   0.764E-03    0.383E-03
DAV:  17    -0.873917842378E+03   -0.56177E-05   -0.15485E-05  1552   0.750E-03
  27 F= -.87391784E+03 E0= -.87391784E+03  d E =-.374402E+01  mag=     0.0000
 BRION: g(F)=  0.359E+01 g(S)=  0.000E+00 retain N=  1 mean eig= 0.15
 eig:   0.152
 bond charge predicted
       N       E                     dE             d eps       ncg     rms          rms(c)
DAV:   1    -0.872100049144E+03    0.18178E+01   -0.23027E+02  1728   0.246E+01    0.346E+00
DAV:   2    -0.872461105726E+03   -0.36106E+00   -0.82037E+00  2112   0.452E+00    0.269E+00
DAV:   3    -0.872259701238E+03    0.20140E+00   -0.28670E-01  2160   0.128E+00    0.163E+00
DAV:   4    -0.872127894252E+03    0.13181E+00   -0.22224E-01  2320   0.139E+00    0.451E-01
DAV:   5    -0.872119697328E+03    0.81969E-02   -0.11792E-01  2192   0.766E-01    0.374E-01
DAV:   6    -0.872112598329E+03    0.70990E-02   -0.26261E-02  2128   0.384E-01    0.239E-01
DAV:   7    -0.872106783508E+03    0.58148E-02   -0.22805E-03  2368   0.285E-01    0.142E-01
DAV:   8    -0.872102746932E+03    0.40366E-02   -0.53559E-03  2336   0.449E-01    0.827E-02
DAV:   9    -0.872103286832E+03   -0.53990E-03   -0.66760E-03  2064   0.159E-01    0.745E-02
DAV:  10    -0.872103412760E+03   -0.12593E-03   -0.92704E-04  1968   0.538E-02    0.504E-02
DAV:  11    -0.872103645849E+03   -0.23309E-03   -0.36024E-04  2176   0.684E-02    0.211E-02
DAV:  12    -0.872103791965E+03   -0.14612E-03   -0.18350E-04  2008   0.279E-02    0.174E-02
DAV:  13    -0.872103921067E+03   -0.12910E-03   -0.28386E-04  1848   0.334E-02    0.160E-02
DAV:  14    -0.872103858842E+03    0.62225E-04   -0.14095E-04  1872   0.233E-02    0.144E-02
DAV:  15    -0.872103888133E+03   -0.29291E-04   -0.36479E-05  1624   0.119E-02    0.791E-03
DAV:  16    -0.872103878412E+03    0.97205E-05   -0.56994E-05  1672   0.138E-02
  28 F= -.87210388E+03 E0= -.87210388E+03  d E =0.181396E+01  mag=     0.0000
 BRION: g(F)=  0.392E+02 g(S)=  0.000E+00 retain N=  2 mean eig= 0.14
 eig:   0.145  0.145
 bond charge predicted
       N       E                     dE             d eps       ncg     rms          rms(c)
DAV:   1    -0.873633478766E+03   -0.15296E+01   -0.16098E+02  1728   0.144E+01    0.423E+00
DAV:   2    -0.873811876721E+03   -0.17840E+00   -0.62070E+00  2160   0.283E+00    0.234E+00
DAV:   3    -0.873674356031E+03    0.13752E+00   -0.18751E-01  2160   0.918E-01    0.119E+00
DAV:   4    -0.873631731746E+03    0.42624E-01   -0.11256E-01  2224   0.753E-01    0.316E-01
DAV:   5    -0.873627015414E+03    0.47163E-02   -0.28675E-02  2160   0.371E-01    0.233E-01
DAV:   6    -0.873624529951E+03    0.24855E-02   -0.37438E-03  2144   0.163E-01    0.111E-01
DAV:   7    -0.873622929211E+03    0.16007E-02   -0.14387E-03  2392   0.208E-01    0.603E-02
DAV:   8    -0.873622632776E+03    0.29644E-03   -0.18620E-03  2096   0.195E-01    0.395E-02
DAV:   9    -0.873622978798E+03   -0.34602E-03   -0.21878E-03  2096   0.121E-01    0.462E-02
DAV:  10    -0.873623010400E+03   -0.31602E-04   -0.37206E-04  2112   0.336E-02    0.398E-02
DAV:  11    -0.873623056275E+03   -0.45875E-04   -0.11708E-04  2192   0.268E-02    0.151E-02
DAV:  12    -0.873623134370E+03   -0.78095E-04   -0.14994E-04  2096   0.292E-02    0.243E-02
DAV:  13    -0.873623184159E+03   -0.49789E-04   -0.16525E-04  1776   0.295E-02    0.908E-03
DAV:  14    -0.873623144614E+03    0.39545E-04   -0.10732E-04  1728   0.191E-02    0.728E-03
DAV:  15    -0.873623156959E+03   -0.12345E-04   -0.26682E-05  1688   0.101E-02    0.582E-03
DAV:  16    -0.873623157189E+03   -0.22959E-06   -0.20265E-05  1584   0.882E-03
  29 F= -.87362316E+03 E0= -.87362316E+03  d E =-.151928E+01  mag=    -0.0000
 BRION: g(F)=  0.796E+01 g(S)=  0.000E+00 retain N=  2 mean eig= 3.62
 eig:   0.107  7.127
 bond charge predicted
       N       E                     dE             d eps       ncg     rms          rms(c)
DAV:   1    -0.872360589836E+03    0.12626E+01   -0.23510E+02  1728   0.225E+01    0.344E+00
DAV:   2    -0.872955868180E+03   -0.59528E+00   -0.91313E+00  2112   0.413E+00    0.281E+00
DAV:   3    -0.872803040502E+03    0.15283E+00   -0.27879E-01  2144   0.108E+00    0.162E+00
DAV:   4    -0.872723031698E+03    0.80009E-01   -0.24033E-01  2160   0.989E-01    0.446E-01
DAV:   5    -0.872718649423E+03    0.43823E-02   -0.51367E-02  2256   0.507E-01    0.246E-01
DAV:   6    -0.872717318849E+03    0.13306E-02   -0.15743E-02  2160   0.283E-01    0.180E-01
DAV:   7    -0.872716381378E+03    0.93747E-03   -0.20037E-03  2120   0.116E-01    0.106E-01
DAV:   8    -0.872715174655E+03    0.12067E-02   -0.19024E-03  2224   0.185E-01    0.885E-02
DAV:   9    -0.872714893061E+03    0.28159E-03   -0.84494E-04  2288   0.102E-01    0.647E-02
DAV:  10    -0.872714934711E+03   -0.41649E-04   -0.13885E-03  1968   0.829E-02    0.439E-02
DAV:  11    -0.872714916456E+03    0.18254E-04   -0.13991E-04  2160   0.418E-02    0.251E-02
DAV:  12    -0.872714933313E+03   -0.16856E-04   -0.66946E-05  2000   0.379E-02    0.130E-02
DAV:  13    -0.872714957045E+03   -0.23732E-04   -0.11351E-04  1856   0.197E-02    0.113E-02
DAV:  14    -0.872714947711E+03    0.93336E-05   -0.19389E-05  1512   0.837E-03
  30 F= -.87271495E+03 E0= -.87271495E+03  d E =0.908209E+00  mag=     0.0000
 BRION: g(F)=  0.293E+02 g(S)=  0.000E+00 retain N=  3 mean eig= 2.43
 eig:   7.112  0.146  0.034
 bond charge predicted
       N       E                     dE             d eps       ncg     rms          rms(c)
DAV:   1    -0.874179110870E+03   -0.14642E+01   -0.15065E+02  1776   0.178E+01    0.232E+00
DAV:   2    -0.874598005988E+03   -0.41890E+00   -0.58416E+00  2096   0.297E+00    0.212E+00
DAV:   3    -0.874504152926E+03    0.93853E-01   -0.13560E-01  2144   0.638E-01    0.144E+00
DAV:   4    -0.874422623848E+03    0.81529E-01   -0.12364E-01  2096   0.718E-01    0.491E-01
DAV:   5    -0.874417107040E+03    0.55168E-02   -0.61005E-02  2160   0.466E-01    0.277E-01
DAV:   6    -0.874415959591E+03    0.11474E-02   -0.17785E-02  2096   0.265E-01    0.157E-01
DAV:   7    -0.874414627356E+03    0.13322E-02   -0.13835E-03  2128   0.135E-01    0.835E-02
DAV:   8    -0.874413982792E+03    0.64456E-03   -0.12277E-03  2256   0.152E-01    0.364E-02
DAV:   9    -0.874414076586E+03   -0.93794E-04   -0.13230E-03  1984   0.120E-01    0.338E-02
DAV:  10    -0.874414199438E+03   -0.12285E-03   -0.11669E-03  1856   0.644E-02    0.356E-02
DAV:  11    -0.874414033456E+03    0.16598E-03   -0.24148E-04  1896   0.299E-02    0.227E-02
DAV:  12    -0.874414252205E+03   -0.21875E-03   -0.24000E-04  1984   0.348E-02    0.175E-02
DAV:  13    -0.874414094855E+03    0.15735E-03   -0.25121E-04  1768   0.277E-02    0.121E-02
DAV:  14    -0.874414097081E+03   -0.22253E-05   -0.25170E-05  1688   0.109E-02
  31 F= -.87441410E+03 E0= -.87441410E+03  d E =-.169915E+01  mag=     0.0000
 BRION: g(F)=  0.671E+00 g(S)=  0.000E+00 retain N=  1 mean eig= 0.16
 eig:   0.155
 bond charge predicted
       N       E                     dE             d eps       ncg     rms          rms(c)
DAV:   1    -0.873801710318E+03    0.61238E+00   -0.49339E+01  1728   0.950E+00    0.189E+00
DAV:   2    -0.873875900556E+03   -0.74190E-01   -0.16550E+00  2064   0.163E+00    0.131E+00
DAV:   3    -0.873829563881E+03    0.46337E-01   -0.67211E-02  2128   0.527E-01    0.611E-01
DAV:   4    -0.873815597127E+03    0.13967E-01   -0.27922E-02  2304   0.407E-01    0.170E-01
DAV:   5    -0.873814574394E+03    0.10227E-02   -0.87613E-03  2224   0.195E-01    0.119E-01
DAV:   6    -0.873813701066E+03    0.87333E-03   -0.75878E-04  2144   0.765E-02    0.602E-02
DAV:   7    -0.873813132290E+03    0.56878E-03   -0.31438E-04  2272   0.898E-02    0.290E-02
DAV:   8    -0.873812979005E+03    0.15328E-03   -0.47042E-04  2176   0.100E-01    0.218E-02
DAV:   9    -0.873813048612E+03   -0.69607E-04   -0.55676E-04  1984   0.420E-02    0.234E-02
DAV:  10    -0.873813047204E+03    0.14074E-05   -0.23376E-05  1600   0.127E-02
  32 F= -.87381305E+03 E0= -.87381305E+03  d E =0.601050E+00  mag=     0.0000
 BRION: g(F)=  0.179E+02 g(S)=  0.000E+00 retain N=  2 mean eig= 0.11
 eig:   0.143  0.085
 bond charge predicted
       N       E                     dE             d eps       ncg     rms          rms(c)
DAV:   1    -0.874437699751E+03   -0.62465E+00   -0.33341E+01  1744   0.509E+00    0.205E+00
DAV:   2    -0.874464910186E+03   -0.27210E-01   -0.12135E+00  2000   0.994E-01    0.117E+00
DAV:   3    -0.874431793484E+03    0.33117E-01   -0.44662E-02  2192   0.326E-01    0.483E-01
DAV:   4    -0.874426457131E+03    0.53364E-02   -0.23179E-02  2192   0.225E-01    0.119E-01
DAV:   5    -0.874426155923E+03    0.30121E-03   -0.26684E-03  1984   0.879E-02    0.801E-02
DAV:   6    -0.874426006986E+03    0.14894E-03   -0.44617E-04  2192   0.489E-02    0.331E-02
DAV:   7    -0.874425982575E+03    0.24411E-04   -0.18225E-04  1872   0.450E-02    0.192E-02
DAV:   8    -0.874426137820E+03   -0.15525E-03   -0.36732E-04  1808   0.544E-02    0.111E-02
DAV:   9    -0.874426200584E+03   -0.62764E-04   -0.67116E-04  1792   0.485E-02    0.129E-02
DAV:  10    -0.874426036886E+03    0.16370E-03   -0.12390E-04  1728   0.216E-02    0.714E-03
DAV:  11    -0.874426064296E+03   -0.27411E-04   -0.17355E-05  1536   0.762E-03    0.414E-03
DAV:  12    -0.874426040581E+03    0.23716E-04   -0.44527E-05  1576   0.121E-02    0.317E-03
DAV:  13    -0.874426041206E+03   -0.62591E-06   -0.63574E-06  1376   0.596E-03
  33 F= -.87442604E+03 E0= -.87442604E+03  d E =-.612994E+00  mag=     0.0000
 BRION: g(F)=  0.104E+01 g(S)=  0.000E+00 retain N=  1 mean eig= 0.08
 eig:   0.079
 bond charge predicted
       N       E                     dE             d eps       ncg     rms          rms(c)
DAV:   1    -0.873630965091E+03    0.79508E+00   -0.11179E+02  1728   0.175E+01    0.214E+00
DAV:   2    -0.873761223187E+03   -0.13026E+00   -0.34646E+00  2112   0.312E+00    0.160E+00
DAV:   3    -0.873664339622E+03    0.96884E-01   -0.14353E-01  2176   0.989E-01    0.981E-01
DAV:   4    -0.873598779450E+03    0.65560E-01   -0.82194E-02  2336   0.946E-01    0.301E-01
DAV:   5    -0.873588686671E+03    0.10093E-01   -0.55571E-02  2320   0.647E-01    0.207E-01
DAV:   6    -0.873584582297E+03    0.41044E-02   -0.19493E-02  2288   0.388E-01    0.195E-01
DAV:   7    -0.873580450212E+03    0.41321E-02   -0.37766E-03  2352   0.298E-01    0.865E-02
DAV:   8    -0.873579614246E+03    0.83597E-03   -0.20391E-03  2272   0.266E-01    0.508E-02
DAV:   9    -0.873580260198E+03   -0.64595E-03   -0.35194E-03  2032   0.119E-01    0.521E-02
DAV:  10    -0.873580341184E+03   -0.80985E-04   -0.25103E-04  2128   0.271E-02    0.451E-02
DAV:  11    -0.873580574951E+03   -0.23377E-03   -0.19245E-04  2176   0.414E-02    0.179E-02
DAV:  12    -0.873580660720E+03   -0.85769E-04   -0.85158E-05  2096   0.203E-02    0.190E-02
DAV:  13    -0.873580698961E+03   -0.38241E-04   -0.38303E-05  1784   0.151E-02    0.110E-02
DAV:  14    -0.873580709848E+03   -0.10887E-04   -0.21540E-05  1576   0.100E-02    0.616E-03
DAV:  15    -0.873580729885E+03   -0.20037E-04   -0.24983E-05  1632   0.103E-02    0.505E-03
DAV:  16    -0.873580727556E+03    0.23282E-05   -0.20913E-05  1568   0.832E-03
  34 F= -.87358073E+03 E0= -.87358073E+03  d E =0.845314E+00  mag=     0.0000
 BRION: g(F)=  0.929E+01 g(S)=  0.000E+00 retain N=  2 mean eig= 0.13
 eig:   0.127  0.127
 bond charge predicted
       N       E                     dE             d eps       ncg     rms          rms(c)
DAV:   1    -0.874550322750E+03   -0.96959E+00   -0.71393E+01  1728   0.141E+01    0.167E+00
DAV:   2    -0.874625356352E+03   -0.75034E-01   -0.21632E+00  2144   0.248E+00    0.125E+00
DAV:   3    -0.874559016818E+03    0.66340E-01   -0.91784E-02  2160   0.813E-01    0.767E-01
DAV:   4    -0.874514038911E+03    0.44978E-01   -0.50395E-02  2336   0.797E-01    0.239E-01
DAV:   5    -0.874506317263E+03    0.77216E-02   -0.39727E-02  2320   0.566E-01    0.169E-01
DAV:   6    -0.874502743777E+03    0.35735E-02   -0.14613E-02  2320   0.375E-01    0.165E-01
DAV:   7    -0.874499938589E+03    0.28052E-02   -0.28830E-03  2336   0.278E-01    0.803E-02
DAV:   8    -0.874499629732E+03    0.30886E-03   -0.19444E-03  2240   0.193E-01    0.339E-02
DAV:   9    -0.874500003216E+03   -0.37348E-03   -0.18106E-03  2008   0.790E-02    0.426E-02
DAV:  10    -0.874500014625E+03   -0.11408E-04   -0.80704E-05  2104   0.184E-02    0.304E-02
DAV:  11    -0.874500206314E+03   -0.19169E-03   -0.19164E-04  2144   0.333E-02    0.149E-02
DAV:  12    -0.874500182948E+03    0.23366E-04   -0.11743E-04  1824   0.221E-02    0.148E-02
DAV:  13    -0.874500223923E+03   -0.40976E-04   -0.98891E-05  1664   0.205E-02    0.671E-03
DAV:  14    -0.874500206344E+03    0.17579E-04   -0.10094E-04  1648   0.190E-02    0.735E-03
DAV:  15    -0.874500204110E+03    0.22337E-05   -0.32475E-05  1520   0.107E-02
  35 F= -.87450020E+03 E0= -.87450020E+03  d E =-.919477E+00  mag=    -0.0000
 BRION: g(F)=  0.131E+00 g(S)=  0.000E+00 retain N=  1 mean eig= 0.20
 eig:   0.196
 bond charge predicted
       N       E                     dE             d eps       ncg     rms          rms(c)
DAV:   1    -0.874379237189E+03    0.12097E+00   -0.18955E+01  1728   0.666E+00    0.980E-01
DAV:   2    -0.874411126440E+03   -0.31889E-01   -0.59293E-01  2080   0.114E+00    0.654E-01
DAV:   3    -0.874399638761E+03    0.11488E-01   -0.15641E-02  2112   0.279E-01    0.392E-01
DAV:   4    -0.874393327799E+03    0.63110E-02   -0.15291E-02  2096   0.293E-01    0.107E-01
DAV:   5    -0.874392983201E+03    0.34460E-03   -0.55388E-03  2312   0.165E-01    0.788E-02
DAV:   6    -0.874392747248E+03    0.23595E-03   -0.79677E-04  2080   0.583E-02    0.520E-02
DAV:   7    -0.874392432657E+03    0.31459E-03   -0.11802E-04  2320   0.600E-02    0.276E-02
DAV:   8    -0.874392248918E+03    0.18374E-03   -0.23740E-04  2264   0.834E-02    0.230E-02
DAV:   9    -0.874392264998E+03   -0.16080E-04   -0.29488E-04  2008   0.435E-02    0.162E-02
DAV:  10    -0.874392277780E+03   -0.12781E-04   -0.11198E-04  1912   0.193E-02    0.137E-02
DAV:  11    -0.874392296003E+03   -0.18223E-04   -0.49208E-05  1632   0.177E-02    0.602E-03
DAV:  12    -0.874392317295E+03   -0.21292E-04   -0.90125E-05  1640   0.181E-02    0.499E-03
DAV:  13    -0.874392300226E+03    0.17069E-04   -0.64636E-05  1600   0.138E-02    0.276E-03
DAV:  14    -0.874392295188E+03    0.50379E-05   -0.84677E-06  1448   0.561E-03
  36 F= -.87439230E+03 E0= -.87439230E+03  d E =0.107909E+00  mag=    -0.0000
 BRION: g(F)=  0.131E+01 g(S)=  0.000E+00 retain N=  2 mean eig= 0.20
 eig:   0.199  0.199
 bond charge predicted
       N       E                     dE             d eps       ncg     rms          rms(c)
DAV:   1    -0.874490405352E+03   -0.98105E-01   -0.11703E+01  1728   0.505E+00    0.809E-01
DAV:   2    -0.874509536426E+03   -0.19131E-01   -0.37145E-01  2080   0.834E-01    0.546E-01
DAV:   3    -0.874500633720E+03    0.89027E-02   -0.10271E-02  2144   0.218E-01    0.293E-01
DAV:   4    -0.874496837997E+03    0.37957E-02   -0.90108E-03  2128   0.227E-01    0.672E-02
DAV:   5    -0.874496721843E+03    0.11615E-03   -0.32068E-03  2192   0.115E-01    0.621E-02
DAV:   6    -0.874496604486E+03    0.11736E-03   -0.23214E-04  2080   0.309E-02    0.434E-02
DAV:   7    -0.874496436801E+03    0.16768E-03   -0.17602E-04  2192   0.515E-02    0.170E-02
DAV:   8    -0.874496413795E+03    0.23006E-04   -0.99461E-05  2192   0.414E-02    0.180E-02
DAV:   9    -0.874496431235E+03   -0.17440E-04   -0.11698E-04  2080   0.295E-02    0.107E-02
DAV:  10    -0.874496444059E+03   -0.12824E-04   -0.46358E-05  1920   0.133E-02    0.821E-03
DAV:  11    -0.874496456454E+03   -0.12395E-04   -0.28929E-05  1616   0.133E-02    0.408E-03
DAV:  12    -0.874496465593E+03   -0.91387E-05   -0.38269E-05  1656   0.110E-02
  37 F= -.87449647E+03 E0= -.87449647E+03  d E =-.104170E+00  mag=     0.0000
 BRION: g(F)=  0.452E+00 g(S)=  0.000E+00 retain N=  3 mean eig= 2.30
 eig:   6.513  0.197  0.197
 bond charge predicted
       N       E                     dE             d eps       ncg     rms          rms(c)
DAV:   1    -0.874521095180E+03   -0.24639E-01   -0.12489E+00  1776   0.119E+00    0.364E-01
DAV:   2    -0.874522277891E+03   -0.11827E-02   -0.49888E-02  2000   0.250E-01    0.255E-01
DAV:   3    -0.874521048862E+03    0.12290E-02   -0.20230E-03  2128   0.676E-02    0.127E-01
DAV:   4    -0.874520542521E+03    0.50634E-03   -0.11028E-03  2176   0.623E-02    0.265E-02
DAV:   5    -0.874520529214E+03    0.13306E-04   -0.22125E-04  1984   0.246E-02    0.189E-02
DAV:   6    -0.874520513045E+03    0.16169E-04   -0.26887E-05  1504   0.102E-02    0.931E-03
DAV:   7    -0.874520502052E+03    0.10993E-04   -0.16766E-05  1528   0.131E-02    0.528E-03
DAV:   8    -0.874520509262E+03   -0.72091E-05   -0.35964E-05  1568   0.151E-02
  38 F= -.87452051E+03 E0= -.87452051E+03  d E =-.240437E-01  mag=     0.0000
 BRION: g(F)=  0.234E-01 g(S)=  0.000E+00 retain N=  2 mean eig= 0.46
 eig:   0.069  0.845
 bond charge predicted
       N       E                     dE             d eps       ncg     rms          rms(c)
DAV:   1    -0.874516569679E+03    0.39324E-02   -0.17054E+00  1728   0.185E+00    0.280E-01
DAV:   2    -0.874519292485E+03   -0.27228E-02   -0.49024E-02  2064   0.309E-01    0.176E-01
DAV:   3    -0.874518585995E+03    0.70649E-03   -0.14020E-03  2040   0.762E-02    0.106E-01
DAV:   4    -0.874518243020E+03    0.34298E-03   -0.10517E-03  1992   0.680E-02    0.321E-02
DAV:   5    -0.874518202755E+03    0.40265E-04   -0.32780E-04  1872   0.415E-02    0.188E-02
DAV:   6    -0.874518188992E+03    0.13763E-04   -0.11576E-04  1808   0.226E-02    0.122E-02
DAV:   7    -0.874518199309E+03   -0.10317E-04   -0.96031E-05  1584   0.205E-02    0.672E-03
DAV:   8    -0.874518226723E+03   -0.27414E-04   -0.20210E-04  1592   0.271E-02    0.493E-03
DAV:   9    -0.874518183608E+03    0.43115E-04   -0.18132E-04  1584   0.228E-02    0.384E-03
DAV:  10    -0.874518162142E+03    0.21466E-04   -0.43313E-05  1504   0.114E-02    0.259E-03
DAV:  11    -0.874518164222E+03   -0.20801E-05   -0.92600E-06  1472   0.597E-03
  39 F= -.87451816E+03 E0= -.87451816E+03  d E =0.234504E-02  mag=     0.0000
 BRION: g(F)=  0.650E-01 g(S)=  0.000E+00 retain N=  3 mean eig= 0.74
 eig:   1.830  0.197  0.197
 bond charge predicted
       N       E                     dE             d eps       ncg     rms          rms(c)
DAV:   1    -0.874525723836E+03   -0.75617E-02   -0.74074E-01  1728   0.131E+00    0.197E-01
DAV:   2    -0.874526807402E+03   -0.10836E-02   -0.23100E-02  2080   0.226E-01    0.128E-01
DAV:   3    -0.874526358323E+03    0.44908E-03   -0.69134E-04  2128   0.590E-02    0.783E-02
DAV:   4    -0.874526107256E+03    0.25107E-03   -0.57688E-04  2096   0.561E-02    0.236E-02
DAV:   5    -0.874526082236E+03    0.25020E-04   -0.21006E-04  2296   0.341E-02    0.151E-02
DAV:   6    -0.874526073050E+03    0.91863E-05   -0.43956E-05  2016   0.141E-02
  40 F= -.87452607E+03 E0= -.87452607E+03  d E =-.790883E-02  mag=    -0.0000
 BRION: g(F)=  0.634E-02 g(S)=  0.000E+00 retain N=  1 mean eig= 0.23
 eig:   0.227
 bond charge predicted
       N       E                     dE             d eps       ncg     rms          rms(c)
DAV:   1    -0.874525499036E+03    0.58320E-03   -0.10656E+00  1728   0.144E+00    0.190E-01
DAV:   2    -0.874527138221E+03   -0.16392E-02   -0.24154E-02  2144   0.218E-01    0.121E-01
DAV:   3    -0.874526847082E+03    0.29114E-03   -0.53300E-04  2144   0.504E-02    0.750E-02
DAV:   4    -0.874526698702E+03    0.14838E-03   -0.42819E-04  2144   0.497E-02    0.215E-02
DAV:   5    -0.874526691512E+03    0.71896E-05   -0.14164E-04  2288   0.287E-02    0.136E-02
DAV:   6    -0.874526687302E+03    0.42103E-05   -0.34328E-05  1872   0.132E-02
  41 F= -.87452669E+03 E0= -.87452669E+03  d E =-.614252E-03  mag=     0.0000
 BRION: g(F)=  0.285E-01 g(S)=  0.000E+00 retain N=  2 mean eig= 0.17
 eig:   0.166  0.166
 bond charge predicted
       N       E                     dE             d eps       ncg     rms          rms(c)
DAV:   1    -0.874529199853E+03   -0.25083E-02   -0.29981E-01  1744   0.824E-01    0.129E-01
DAV:   2    -0.874529647982E+03   -0.44813E-03   -0.90599E-03  2080   0.138E-01    0.856E-02
DAV:   3    -0.874529439517E+03    0.20846E-03   -0.29358E-04  2144   0.397E-02    0.459E-02
DAV:   4    -0.874529359941E+03    0.79576E-04   -0.19735E-04  2272   0.358E-02    0.110E-02
DAV:   5    -0.874529357335E+03    0.26057E-05   -0.66059E-05  2096   0.179E-02
  42 F= -.87452936E+03 E0= -.87452936E+03  d E =-.267003E-02  mag=     0.0000
 BRION: g(F)=  0.158E-01 g(S)=  0.000E+00 retain N=  3 mean eig= 2.20
 eig:   6.196  0.280  0.118
 bond charge predicted
       N       E                     dE             d eps       ncg     rms          rms(c)
DAV:   1    -0.874530496192E+03   -0.11363E-02   -0.56778E-02  1728   0.258E-01    0.662E-02
DAV:   2    -0.874530561043E+03   -0.64850E-04   -0.18369E-03  1984   0.466E-02    0.444E-02
DAV:   3    -0.874530523485E+03    0.37557E-04   -0.63813E-05  1856   0.126E-02    0.223E-02
DAV:   4    -0.874530507740E+03    0.15745E-04   -0.33764E-05  1648   0.132E-02    0.483E-03
DAV:   5    -0.874530507285E+03    0.45477E-06   -0.89024E-06  1248   0.582E-03
  43 F= -.87453051E+03 E0= -.87453051E+03  d E =-.114995E-02  mag=    -0.0000
 BRION: g(F)=  0.332E-02 g(S)=  0.000E+00 retain N=  2 mean eig= 0.69
 eig:   0.076  1.298
 bond charge predicted
       N       E                     dE             d eps       ncg     rms          rms(c)
DAV:   1    -0.874532135898E+03   -0.16282E-02   -0.56554E-01  1728   0.936E-01    0.101E-01
DAV:   2    -0.874532923975E+03   -0.78808E-03   -0.93914E-03  2048   0.118E-01    0.626E-02
DAV:   3    -0.874532875586E+03    0.48389E-04   -0.14376E-04  2128   0.214E-02    0.385E-02
DAV:   4    -0.874532846886E+03    0.28700E-04   -0.78719E-05  2032   0.207E-02    0.905E-03
DAV:   5    -0.874532847869E+03   -0.98359E-06   -0.29476E-05  1792   0.102E-02
  44 F= -.87453285E+03 E0= -.87453285E+03  d E =-.234058E-02  mag=    -0.0000
 BRION: g(F)=  0.450E-02 g(S)=  0.000E+00 retain N=  3 mean eig= 0.78
 eig:   1.998  0.175  0.175
 bond charge predicted
       N       E                     dE             d eps       ncg     rms          rms(c)
DAV:   1    -0.874533705796E+03   -0.85891E-03   -0.69890E-02  1728   0.375E-01    0.468E-02
DAV:   2    -0.874533804869E+03   -0.99073E-04   -0.15257E-03  2144   0.560E-02    0.304E-02
DAV:   3    -0.874533785310E+03    0.19559E-04   -0.33274E-05  1872   0.128E-02    0.188E-02
DAV:   4    -0.874533775341E+03    0.99692E-05   -0.30721E-05  1872   0.129E-02
  45 F= -.87453378E+03 E0= -.87453378E+03  d E =-.927471E-03  mag=    -0.0000
 BRION: g(F)=  0.258E-02 g(S)=  0.000E+00 retain N=  1 mean eig= 0.23
 eig:   0.233
 bond charge predicted
       N       E                     dE             d eps       ncg     rms          rms(c)
DAV:   1    -0.874535314439E+03   -0.15291E-02   -0.50922E-01  1728   0.845E-01    0.100E-01
DAV:   2    -0.874536049203E+03   -0.73476E-03   -0.83989E-03  2032   0.102E-01    0.589E-02
DAV:   3    -0.874536015832E+03    0.33371E-04   -0.10063E-04  1968   0.161E-02    0.357E-02
DAV:   4    -0.874536004050E+03    0.11782E-04   -0.60535E-05  1808   0.153E-02    0.711E-03
DAV:   5    -0.874536005526E+03   -0.14759E-05   -0.16375E-05  1536   0.667E-03
  46 F= -.87453601E+03 E0= -.87453601E+03  d E =-.223019E-02  mag=    -0.0000
 BRION: g(F)=  0.371E-02 g(S)=  0.000E+00 retain N=  2 mean eig= 0.21
 eig:   0.207  0.207
 bond charge predicted
       N       E                     dE             d eps       ncg     rms          rms(c)
DAV:   1    -0.874536487286E+03   -0.48324E-03   -0.28216E-02  1760   0.202E-01    0.357E-02
DAV:   2    -0.874536526422E+03   -0.39135E-04   -0.63849E-04  2016   0.290E-02    0.241E-02
DAV:   3    -0.874536516745E+03    0.96768E-05   -0.18649E-05  1616   0.700E-03
  47 F= -.87453652E+03 E0= -.87453652E+03  d E =-.511219E-03  mag=     0.0000
 BRION: g(F)=  0.309E-02 g(S)=  0.000E+00 retain N=  2 mean eig= 2.42
 eig:   0.221  4.618
 bond charge predicted
       N       E                     dE             d eps       ncg     rms          rms(c)
DAV:   1    -0.874537474764E+03   -0.94834E-03   -0.12750E-01  1728   0.417E-01    0.516E-02
DAV:   2    -0.874537666951E+03   -0.19219E-03   -0.22860E-03  2000   0.528E-02    0.310E-02
DAV:   3    -0.874537655992E+03    0.10959E-04   -0.35547E-05  1808   0.101E-02    0.188E-02
DAV:   4    -0.874537650183E+03    0.58094E-05   -0.18680E-05  1488   0.103E-02
  48 F= -.87453765E+03 E0= -.87453765E+03  d E =-.113344E-02  mag=     0.0000
 BRION: g(F)=  0.260E-02 g(S)=  0.000E+00 retain N=  2 mean eig= 0.50
 eig:   0.043  0.953
 bond charge predicted
       N       E                     dE             d eps       ncg     rms          rms(c)
DAV:   1    -0.874538870443E+03   -0.12145E-02   -0.23557E-01  1728   0.586E-01    0.699E-02
DAV:   2    -0.874539215761E+03   -0.34532E-03   -0.40071E-03  2048   0.726E-02    0.422E-02
DAV:   3    -0.874539197761E+03    0.18000E-04   -0.53331E-05  1888   0.127E-02    0.255E-02
DAV:   4    -0.874539189883E+03    0.78785E-05   -0.26722E-05  1584   0.121E-02
  49 F= -.87453919E+03 E0= -.87453919E+03  d E =-.153970E-02  mag=    -0.0000
 BRION: g(F)=  0.235E-02 g(S)=  0.000E+00 retain N=  3 mean eig= 1.76
 eig:   4.956  0.162  0.162
 bond charge predicted
       N       E                     dE             d eps       ncg     rms          rms(c)
DAV:   1    -0.874540150952E+03   -0.95319E-03   -0.14562E-01  1728   0.469E-01    0.572E-02
DAV:   2    -0.874540367167E+03   -0.21622E-03   -0.25977E-03  2064   0.605E-02    0.341E-02
DAV:   3    -0.874540352514E+03    0.14653E-04   -0.37359E-05  1840   0.113E-02    0.207E-02
DAV:   4    -0.874540345816E+03    0.66983E-05   -0.21267E-05  1600   0.109E-02
  50 F= -.87454035E+03 E0= -.87454035E+03  d E =-.115593E-02  mag=     0.0000
 BRION: g(F)=  0.240E-02 g(S)=  0.000E+00 retain N=  2 mean eig= 0.36
 eig:   0.164  0.564
 bond charge predicted
       N       E                     dE             d eps       ncg     rms          rms(c)
DAV:   1    -0.874541309251E+03   -0.95674E-03   -0.13836E-01  1728   0.441E-01    0.541E-02
DAV:   2    -0.874541522242E+03   -0.21299E-03   -0.24669E-03  2016   0.554E-02    0.317E-02
DAV:   3    -0.874541511685E+03    0.10557E-04   -0.32736E-05  1776   0.961E-03    0.192E-02
DAV:   4    -0.874541507461E+03    0.42243E-05   -0.17227E-05  1472   0.915E-03
  51 F= -.87454151E+03 E0= -.87454151E+03  d E =-.116165E-02  mag=     0.0000
 BRION: g(F)=  0.224E-02 g(S)=  0.000E+00 retain N=  2 mean eig= 0.61
 eig:   0.153  1.067
 bond charge predicted
       N       E                     dE             d eps       ncg     rms          rms(c)
DAV:   1    -0.874542333638E+03   -0.82195E-03   -0.10062E-01  1728   0.366E-01    0.487E-02
DAV:   2    -0.874542482647E+03   -0.14901E-03   -0.17510E-03  2016   0.437E-02    0.304E-02
DAV:   3    -0.874542474544E+03    0.81032E-05   -0.24857E-05  1712   0.719E-03
  52 F= -.87454247E+03 E0= -.87454247E+03  d E =-.967083E-03  mag=     0.0000
 BRION: g(F)=  0.252E-02 g(S)=  0.000E+00 retain N=  2 mean eig= 0.65
 eig:   0.201  1.103
 bond charge predicted
       N       E                     dE             d eps       ncg     rms          rms(c)
DAV:   1    -0.874543450726E+03   -0.96808E-03   -0.16541E-01  1728   0.473E-01    0.605E-02
DAV:   2    -0.874543704600E+03   -0.25387E-03   -0.29241E-03  2016   0.577E-02    0.354E-02
DAV:   3    -0.874543692217E+03    0.12383E-04   -0.37181E-05  1808   0.978E-03    0.212E-02
DAV:   4    -0.874543687694E+03    0.45233E-05   -0.19669E-05  1456   0.958E-03
  53 F= -.87454369E+03 E0= -.87454369E+03  d E =-.121315E-02  mag=    -0.0000
 BRION: g(F)=  0.216E-02 g(S)=  0.000E+00 retain N=  3 mean eig= 1.88
 eig:   5.191  0.267  0.169
 bond charge predicted
       N       E                     dE             d eps       ncg     rms          rms(c)
DAV:   1    -0.874544601224E+03   -0.90901E-03   -0.13889E-01  1728   0.449E-01    0.563E-02
DAV:   2    -0.874544817988E+03   -0.21676E-03   -0.25514E-03  2048   0.579E-02    0.340E-02
DAV:   3    -0.874544805802E+03    0.12186E-04   -0.36533E-05  1824   0.109E-02    0.206E-02
DAV:   4    -0.874544800307E+03    0.54943E-05   -0.17644E-05  1536   0.962E-03
  54 F= -.87454480E+03 E0= -.87454480E+03  d E =-.111261E-02  mag=    -0.0000
 BRION: g(F)=  0.206E-02 g(S)=  0.000E+00 retain N=  2 mean eig= 0.79
 eig:   0.177  1.402
 bond charge predicted
       N       E                     dE             d eps       ncg     rms          rms(c)
DAV:   1    -0.874545714339E+03   -0.90854E-03   -0.16174E-01  1728   0.490E-01    0.602E-02
DAV:   2    -0.874545973992E+03   -0.25965E-03   -0.30496E-03  2064   0.635E-02    0.361E-02
DAV:   3    -0.874545958861E+03    0.15131E-04   -0.41816E-05  1872   0.118E-02    0.219E-02
DAV:   4    -0.874545951611E+03    0.72494E-05   -0.23275E-05  1712   0.117E-02
  55 F= -.87454595E+03 E0= -.87454595E+03  d E =-.115130E-02  mag=    -0.0000
 BRION: g(F)=  0.220E-02 g(S)=  0.000E+00 retain N=  3 mean eig= 1.32
 eig:   3.576  0.085  0.285
 bond charge predicted
       N       E                     dE             d eps       ncg     rms          rms(c)
DAV:   1    -0.874546740731E+03   -0.78187E-03   -0.10434E-01  1728   0.398E-01    0.507E-02
DAV:   2    -0.874546905249E+03   -0.16452E-03   -0.20000E-03  2016   0.522E-02    0.317E-02
DAV:   3    -0.874546893214E+03    0.12035E-04   -0.29535E-05  1776   0.980E-03    0.190E-02
DAV:   4    -0.874546887342E+03    0.58723E-05   -0.16641E-05  1552   0.101E-02
  56 F= -.87454689E+03 E0= -.87454689E+03  d E =-.935731E-03  mag=     0.0000
 BRION: g(F)=  0.251E-02 g(S)=  0.000E+00 retain N=  3 mean eig= 1.08
 eig:   2.641  0.305  0.305
 bond charge predicted
       N       E                     dE             d eps       ncg     rms          rms(c)
DAV:   1    -0.874546892718E+03    0.49637E-06   -0.39653E-03  1728   0.651E-02    0.202E-02
DAV:   2    -0.874546897096E+03   -0.43783E-05   -0.13642E-04  1824   0.127E-02    0.132E-02
DAV:   3    -0.874546893113E+03    0.39829E-05   -0.69262E-06  1248   0.425E-03
  57 F= -.87454689E+03 E0= -.87454689E+03  d E =-.577126E-05  mag=     0.0000
 BRION: g(F)=  0.197E-02 g(S)=  0.000E+00 retain N=  2 mean eig= 0.47
 eig:   0.030  0.915
 bond charge predicted
       N       E                     dE             d eps       ncg     rms          rms(c)
DAV:   1    -0.874548005239E+03   -0.11081E-02   -0.26894E-01  1728   0.594E-01    0.762E-02
[...]
 BRION: g(F)=  0.107E-03 g(S)=  0.000E+00 retain N=  3 mean eig= 2.38
 eig:   3.664  2.288  1.178
 bond charge predicted
       N       E                     dE             d eps       ncg     rms          rms(c)
DAV:   1    -0.874643423718E+03    0.24710E-03   -0.68842E-02  1728   0.265E-01    0.409E-02
DAV:   2    -0.874643545806E+03   -0.12209E-03   -0.13050E-03  1840   0.298E-02    0.248E-02
DAV:   3    -0.874643541163E+03    0.46431E-05   -0.88395E-06  1568   0.393E-03
 462 F= -.87464354E+03 E0= -.87464354E+03  d E =0.128705E-03  mag=     0.0000
 BRION: g(F)=  0.185E-03 g(S)=  0.000E+00 retain N=  2 mean eig= 0.84
 eig:   0.082  1.607
 bond charge predicted
       N       E                     dE             d eps       ncg     rms          rms(c)
DAV:   1    -0.874643529857E+03    0.15948E-04   -0.17740E-02  1744   0.184E-01    0.220E-02
DAV:   2    -0.874643563804E+03   -0.33947E-04   -0.46288E-04  2080   0.284E-02    0.155E-02
DAV:   3    -0.874643558488E+03    0.53160E-05   -0.74899E-06  1568   0.634E-03
 463 F= -.87464356E+03 E0= -.87464356E+03  d E =-.173257E-04  mag=     0.0000
 BRION: g(F)=  0.382E-03 g(S)=  0.000E+00 retain N=  3 mean eig= 0.82
 eig:   2.137  0.161  0.161
 bond charge predicted
       N       E                     dE             d eps       ncg     rms          rms(c)
DAV:   1    -0.874643538647E+03    0.25157E-04   -0.10622E-02  1728   0.143E-01    0.169E-02
DAV:   2    -0.874643561810E+03   -0.23163E-04   -0.28823E-04  2064   0.223E-02    0.118E-02
DAV:   3    -0.874643559004E+03    0.28061E-05   -0.33324E-06  1072   0.409E-03
 464 F= -.87464356E+03 E0= -.87464356E+03  d E =-.515545E-06  mag=     0.0000
 BRION: g(F)=  0.100E-03 g(S)=  0.000E+00 retain N=  1 mean eig= 0.29
 eig:   0.292
 bond charge predicted
       N       E                     dE             d eps       ncg     rms          rms(c)
DAV:   1    -0.874643500315E+03    0.61495E-04   -0.19103E-02  1744   0.187E-01    0.260E-02
DAV:   2    -0.874643532672E+03   -0.32357E-04   -0.50689E-04  2080   0.299E-02    0.178E-02
DAV:   3    -0.874643525247E+03    0.74251E-05   -0.11101E-05  1648   0.760E-03
 465 F= -.87464353E+03 E0= -.87464353E+03  d E =0.337572E-04  mag=    -0.0000
 BRION: g(F)=  0.115E-02 g(S)=  0.000E+00 retain N=  2 mean eig= 0.21
 eig:   0.284  0.133
 bond charge predicted
       N       E                     dE             d eps       ncg     rms          rms(c)
DAV:   1    -0.874643597229E+03   -0.64557E-04   -0.60100E-03  1728   0.976E-02    0.219E-02
DAV:   2    -0.874643609200E+03   -0.11971E-04   -0.22702E-04  1952   0.195E-02    0.155E-02
DAV:   3    -0.874643604105E+03    0.50955E-05   -0.69722E-06  1328   0.465E-03
 466 F= -.87464360E+03 E0= -.87464360E+03  d E =-.788580E-04  mag=    -0.0000
 BRION: g(F)=  0.292E-03 g(S)=  0.000E+00 retain N=  3 mean eig= 2.27
 eig:   6.408  0.279  0.132
 bond charge predicted
       N       E                     dE             d eps       ncg     rms          rms(c)
DAV:   1    -0.874643629267E+03   -0.20067E-04   -0.16179E-03  1728   0.543E-02    0.889E-03
DAV:   2    -0.874643631817E+03   -0.25501E-05   -0.46861E-05  1728   0.905E-03
 467 F= -.87464363E+03 E0= -.87464363E+03  d E =-.277121E-04  mag=    -0.0000
 BRION: g(F)=  0.600E-04 g(S)=  0.000E+00 retain N=  2 mean eig= 0.45
 eig:   0.048  0.856
 bond charge predicted
       N       E                     dE             d eps       ncg     rms          rms(c)
DAV:   1    -0.874643658877E+03   -0.29610E-04   -0.13724E-02  1728   0.128E-01    0.187E-02
DAV:   2    -0.874643682201E+03   -0.23324E-04   -0.27144E-04  2032   0.166E-02    0.122E-02
DAV:   3    -0.874643680606E+03    0.15952E-05   -0.28107E-06  1184   0.360E-03
 468 F= -.87464368E+03 E0= -.87464368E+03  d E =-.487888E-04  mag=    -0.0000
 BRION: g(F)=  0.919E-04 g(S)=  0.000E+00 retain N=  3 mean eig= 0.45
 eig:   1.061  0.145  0.145
 bond charge predicted
       N       E                     dE             d eps       ncg     rms          rms(c)
DAV:   1    -0.874643697138E+03   -0.14938E-04   -0.11834E-03  1728   0.495E-02    0.641E-03
DAV:   2    -0.874643699199E+03   -0.20604E-05   -0.27702E-05  1456   0.740E-03
 469 F= -.87464370E+03 E0= -.87464370E+03  d E =-.185932E-04  mag=    -0.0000
 BRION: g(F)=  0.569E-04 g(S)=  0.000E+00 retain N=  2 mean eig= 3.62
 eig:   0.236  7.005
 bond charge predicted
       N       E                     dE             d eps       ncg     rms          rms(c)
DAV:   1    -0.874643719349E+03   -0.22210E-04   -0.25511E-03  1600   0.515E-02    0.908E-03
DAV:   2    -0.874643723507E+03   -0.41582E-05   -0.47719E-05  1344   0.619E-03
 470 F= -.87464372E+03 E0= -.87464372E+03  d E =-.243082E-04  mag=     0.0000
 BRION: g(F)=  0.523E-04 g(S)=  0.000E+00 retain N=  2 mean eig= 0.22
 eig:   0.422  0.009
 bond charge predicted
       N       E                     dE             d eps       ncg     rms          rms(c)
DAV:   1    -0.874643755951E+03   -0.36602E-04   -0.13103E-02  1664   0.114E-01    0.192E-02
DAV:   2    -0.874643778012E+03   -0.22061E-04   -0.24813E-04  1776   0.133E-02    0.123E-02
DAV:   3    -0.874643777076E+03    0.93559E-06   -0.20409E-06  1104   0.217E-03
 471 F= -.87464378E+03 E0= -.87464378E+03  d E =-.535691E-04  mag=     0.0000
 BRION: g(F)=  0.820E-04 g(S)=  0.000E+00 retain N=  3 mean eig= 0.64
 eig:   1.313  0.442  0.179
 bond charge predicted
       N       E                     dE             d eps       ncg     rms          rms(c)
DAV:   1    -0.874643792928E+03   -0.14916E-04   -0.10545E-03  1600   0.351E-02    0.583E-03
DAV:   2    -0.874643794549E+03   -0.16211E-05   -0.17721E-05  1104   0.431E-03
 472 F= -.87464379E+03 E0= -.87464379E+03  d E =-.174727E-04  mag=    -0.0000
 BRION: g(F)=  0.586E-04 g(S)=  0.000E+00 retain N=  2 mean eig= 3.12
 eig:   0.060  6.181
 bond charge predicted
       N       E                     dE             d eps       ncg     rms          rms(c)
DAV:   1    -0.874643794968E+03   -0.20408E-05   -0.94803E-05  1616   0.164E-02    0.300E-03
DAV:   2    -0.874643795125E+03   -0.15625E-06   -0.28988E-06   864   0.282E-03
 473 F= -.87464380E+03 E0= -.87464380E+03  d E =-.575936E-06  mag=    -0.0000
 BRION: g(F)=  0.595E-04 g(S)=  0.000E+00 retain N=  2 mean eig= 0.22
 eig:   0.107  0.331
 bond charge predicted
       N       E                     dE             d eps       ncg     rms          rms(c)
DAV:   1    -0.874643828535E+03   -0.33567E-04   -0.16524E-02  1696   0.130E-01    0.201E-02
DAV:   2    -0.874643857989E+03   -0.29454E-04   -0.31962E-04  1872   0.152E-02    0.125E-02
DAV:   3    -0.874643856891E+03    0.10980E-05   -0.21941E-06  1104   0.213E-03
 474 F= -.87464386E+03 E0= -.87464386E+03  d E =-.617666E-04  mag=    -0.0000
 BRION: g(F)=  0.653E-04 g(S)=  0.000E+00 retain N=  3 mean eig= 0.23
 eig:   0.089  0.306  0.306
 bond charge predicted
       N       E                     dE             d eps       ncg     rms          rms(c)
DAV:   1    -0.874643871921E+03   -0.13932E-04   -0.10652E-03  1600   0.382E-02    0.586E-03
DAV:   2    -0.874643873569E+03   -0.16477E-05   -0.18784E-05  1136   0.499E-03
 475 F= -.87464387E+03 E0= -.87464387E+03  d E =-.166777E-04  mag=    -0.0000
 BRION: g(F)=  0.546E-04 g(S)=  0.000E+00 retain N=  1 mean eig= 0.29
 eig:   0.289
 bond charge predicted
       N       E                     dE             d eps       ncg     rms          rms(c)
DAV:   1    -0.874643903638E+03   -0.31717E-04   -0.13823E-02  1712   0.121E-01    0.193E-02
DAV:   2    -0.874643927754E+03   -0.24116E-04   -0.26648E-04  1888   0.146E-02    0.125E-02
DAV:   3    -0.874643926581E+03    0.11730E-05   -0.22199E-06  1152   0.241E-03
 476 F= -.87464393E+03 E0= -.87464393E+03  d E =-.530121E-04  mag=     0.0000
 BRION: g(F)=  0.981E-04 g(S)=  0.000E+00 retain N=  2 mean eig= 0.22
 eig:   0.282  0.167
 bond charge predicted
       N       E                     dE             d eps       ncg     rms          rms(c)
DAV:   1    -0.874643937167E+03   -0.94132E-05   -0.53995E-04  1600   0.264E-02    0.565E-03
DAV:   2    -0.874643937851E+03   -0.68332E-06   -0.13578E-05  1104   0.454E-03
 477 F= -.87464394E+03 E0= -.87464394E+03  d E =-.112696E-04  mag=     0.0000
 BRION: g(F)=  0.615E-04 g(S)=  0.000E+00 retain N=  3 mean eig= 2.38
 eig:   6.738  0.280  0.124
 bond charge predicted
       N       E                     dE             d eps       ncg     rms          rms(c)
DAV:   1    -0.874643949798E+03   -0.12630E-04   -0.68337E-04  1600   0.283E-02    0.487E-03
DAV:   2    -0.874643951008E+03   -0.12108E-05   -0.13611E-05  1040   0.375E-03
 478 F= -.87464395E+03 E0= -.87464395E+03  d E =-.131578E-04  mag=     0.0000
 BRION: g(F)=  0.523E-04 g(S)=  0.000E+00 retain N=  2 mean eig= 0.42
 eig:   0.048  0.801
 bond charge predicted
       N       E                     dE             d eps       ncg     rms          rms(c)
DAV:   1    -0.874643983875E+03   -0.34078E-04   -0.12305E-02  1696   0.112E-01    0.179E-02
DAV:   2    -0.874644005314E+03   -0.21438E-04   -0.23420E-04  1776   0.130E-02    0.114E-02
DAV:   3    -0.874644004406E+03    0.90778E-06   -0.18289E-06  1088   0.203E-03
 479 F= -.87464400E+03 E0= -.87464400E+03  d E =-.533974E-04  mag=    -0.0000
 BRION: g(F)=  0.577E-04 g(S)=  0.000E+00 retain N=  3 mean eig= 0.35
 eig:   0.819  0.028  0.195
 bond charge predicted
       N       E                     dE             d eps       ncg     rms          rms(c)
DAV:   1    -0.874644012099E+03   -0.67852E-05   -0.23810E-04  1632   0.169E-02    0.320E-03
DAV:   2    -0.874644012396E+03   -0.29698E-06   -0.34714E-06  1008   0.209E-03
 480 F= -.87464401E+03 E0= -.87464401E+03  d E =-.798999E-05  mag=    -0.0000
 BRION: g(F)=  0.537E-04 g(S)=  0.000E+00 retain N=  1 mean eig= 0.38
 eig:   0.377
 bond charge predicted
       N       E                     dE             d eps       ncg     rms          rms(c)
DAV:   1    -0.874644045267E+03   -0.33168E-04   -0.19136E-02  1696   0.138E-01    0.217E-02
DAV:   2    -0.874644079425E+03   -0.34158E-04   -0.36688E-04  1840   0.157E-02    0.135E-02
DAV:   3    -0.874644078249E+03    0.11752E-05   -0.25411E-06  1216   0.209E-03
 481 F= -.87464408E+03 E0= -.87464408E+03  d E =-.658536E-04  mag=     0.0000
 BRION: g(F)=  0.589E-04 g(S)=  0.000E+00 retain N=  2 mean eig= 0.26
 eig:   0.263  0.263
 bond charge predicted
       N       E                     dE             d eps       ncg     rms          rms(c)
DAV:   1    -0.874644094775E+03   -0.15351E-04   -0.15227E-03  1600   0.397E-02    0.699E-03
DAV:   2    -0.874644096994E+03   -0.22185E-05   -0.25529E-05  1248   0.458E-03
 482 F= -.87464410E+03 E0= -.87464410E+03  d E =-.187445E-04  mag=    -0.0000
 BRION: g(F)=  0.566E-04 g(S)=  0.000E+00 retain N=  3 mean eig= 1.46
 eig:   4.028  0.331  0.023
 bond charge predicted
       N       E                     dE             d eps       ncg     rms          rms(c)
DAV:   1    -0.874644128051E+03   -0.33276E-04   -0.98581E-03  1664   0.996E-02    0.166E-02
DAV:   2    -0.874644145084E+03   -0.17033E-04   -0.18587E-04  1696   0.114E-02    0.107E-02
DAV:   3    -0.874644144290E+03    0.79405E-06   -0.15678E-06  1024   0.194E-03
 483 F= -.87464414E+03 E0= -.87464414E+03  d E =-.472964E-04  mag=     0.0000
 BRION: g(F)=  0.647E-04 g(S)=  0.000E+00 retain N=  2 mean eig= 1.41
 eig:   0.122  2.697
 bond charge predicted
       N       E                     dE             d eps       ncg     rms          rms(c)
DAV:   1    -0.874644150245E+03   -0.51605E-05   -0.79802E-04  1696   0.419E-02    0.549E-03
DAV:   2    -0.874644151455E+03   -0.12102E-05   -0.19004E-05  1408   0.638E-03
 484 F= -.87464415E+03 E0= -.87464415E+03  d E =-.716472E-05  mag=     0.0000
 BRION: g(F)=  0.750E-04 g(S)=  0.000E+00 retain N=  3 mean eig= 1.01
 eig:   2.692  0.121  0.227
 bond charge predicted
       N       E                     dE             d eps       ncg     rms          rms(c)
DAV:   1    -0.874644158781E+03   -0.85364E-05   -0.43932E-04  1680   0.330E-02    0.421E-03
DAV:   2    -0.874644159962E+03   -0.11810E-05   -0.13194E-05  1152   0.526E-03
 485 F= -.87464416E+03 E0= -.87464416E+03  d E =-.850721E-05  mag=    -0.0000
 BRION: g(F)=  0.555E-04 g(S)=  0.000E+00 retain N=  1 mean eig= 0.27
 eig:   0.265
 bond charge predicted
       N       E                     dE             d eps       ncg     rms          rms(c)
DAV:   1    -0.874644176183E+03   -0.17401E-04   -0.12566E-02  1632   0.110E-01    0.190E-02
DAV:   2    -0.874644198484E+03   -0.22301E-04   -0.26101E-04  1744   0.135E-02    0.120E-02
DAV:   3    -0.874644197018E+03    0.14662E-05   -0.27093E-06  1232   0.247E-03
 486 F= -.87464420E+03 E0= -.87464420E+03  d E =-.370554E-04  mag=    -0.0000
 BRION: g(F)=  0.316E-03 g(S)=  0.000E+00 retain N=  2 mean eig= 0.19
 eig:   0.261  0.113
 bond charge predicted
       N       E                     dE             d eps       ncg     rms          rms(c)
DAV:   1    -0.874644216669E+03   -0.18185E-04   -0.76511E-04  1616   0.252E-02    0.858E-03
DAV:   2    -0.874644218130E+03   -0.14618E-05   -0.27025E-05  1328   0.535E-03
 487 F= -.87464422E+03 E0= -.87464422E+03  d E =-.211127E-04  mag=     0.0000
 BRION: g(F)=  0.543E-04 g(S)=  0.000E+00 retain N=  1 mean eig= 0.11
 eig:   0.112
 bond charge predicted
       N       E                     dE             d eps       ncg     rms          rms(c)
DAV:   1    -0.874644247214E+03   -0.30546E-04   -0.12226E-02  1712   0.117E-01    0.183E-02
DAV:   2    -0.874644268827E+03   -0.21613E-04   -0.24026E-04  1856   0.143E-02    0.113E-02
DAV:   3    -0.874644267573E+03    0.12545E-05   -0.20174E-06  1120   0.257E-03
 488 F= -.87464427E+03 E0= -.87464427E+03  d E =-.494424E-04  mag=    -0.0000
 BRION: g(F)=  0.686E-04 g(S)=  0.000E+00 retain N=  2 mean eig= 0.10
 eig:   0.176  0.022
 bond charge predicted
       N       E                     dE             d eps       ncg     rms          rms(c)
DAV:   1    -0.874644279922E+03   -0.11095E-04   -0.66819E-04  1600   0.325E-02    0.488E-03
DAV:   2    -0.874644281003E+03   -0.10803E-05   -0.13326E-05  1040   0.484E-03
 489 F= -.87464428E+03 E0= -.87464428E+03  d E =-.134299E-04  mag=    -0.0000
 BRION: g(F)=  0.537E-04 g(S)=  0.000E+00 retain N=  2 mean eig= 3.65
 eig:   0.177  7.132
 bond charge predicted
       N       E                     dE             d eps       ncg     rms          rms(c)
DAV:   1    -0.874644305783E+03   -0.25860E-04   -0.52867E-03  1600   0.727E-02    0.122E-02
DAV:   2    -0.874644315036E+03   -0.92529E-05   -0.10276E-04  1616   0.870E-03    0.760E-03
DAV:   3    -0.874644314632E+03    0.40331E-06   -0.10949E-06   944   0.172E-03
 490 F= -.87464431E+03 E0= -.87464431E+03  d E =-.336297E-04  mag=    -0.0000
 BRION: g(F)=  0.706E-04 g(S)=  0.000E+00 retain N=  2 mean eig= 0.20
 eig:   0.293  0.110
 bond charge predicted
       N       E                     dE             d eps       ncg     rms          rms(c)
DAV:   1    -0.874644339064E+03   -0.24028E-04   -0.37390E-03  1600   0.606E-02    0.981E-03
DAV:   2    -0.874644345392E+03   -0.63284E-05   -0.67374E-05  1440   0.690E-03
 491 F= -.87464435E+03 E0= -.87464435E+03  d E =-.307597E-04  mag=    -0.0000
 BRION: g(F)=  0.552E-04 g(S)=  0.000E+00 retain N=  3 mean eig= 1.40
 eig:   3.537  0.357  0.316
 bond charge predicted
       N       E                     dE             d eps       ncg     rms          rms(c)
DAV:   1    -0.874644366317E+03   -0.27253E-04   -0.49368E-02  1728   0.222E-01    0.361E-02
DAV:   2    -0.874644453329E+03   -0.87012E-04   -0.94186E-04  1872   0.256E-02    0.228E-02
DAV:   3    -0.874644449679E+03    0.36500E-05   -0.67177E-06  1472   0.379E-03
 492 F= -.87464445E+03 E0= -.87464445E+03  d E =-.104287E-03  mag=     0.0000
 BRION: g(F)=  0.100E-03 g(S)=  0.000E+00 retain N=  2 mean eig= 0.46
 eig:   0.233  0.678
 bond charge predicted
       N       E                     dE             d eps       ncg     rms          rms(c)
DAV:   1    -0.874644482499E+03   -0.29169E-04   -0.95848E-03  1696   0.103E-01    0.163E-02
DAV:   2    -0.874644498173E+03   -0.15675E-04   -0.17080E-04  1840   0.125E-02    0.967E-03
DAV:   3    -0.874644497436E+03    0.73727E-06   -0.16988E-06  1056   0.249E-03
 493 F= -.87464450E+03 E0= -.87464450E+03  d E =-.477567E-04  mag=     0.0000
 BRION: g(F)=  0.111E-03 g(S)=  0.000E+00 retain N=  2 mean eig= 0.63
 eig:   0.333  0.923
 bond charge predicted
       N       E                     dE             d eps       ncg     rms          rms(c)
DAV:   1    -0.874644131858E+03    0.36631E-03   -0.11635E-01  1728   0.338E-01    0.517E-02
DAV:   2    -0.874644343502E+03   -0.21164E-03   -0.22574E-03  1744   0.386E-02    0.320E-02
DAV:   3    -0.874644335232E+03    0.82697E-05   -0.14682E-05  1568   0.482E-03
 494 F= -.87464434E+03 E0= -.87464434E+03  d E =0.162204E-03  mag=     0.0000
 BRION: g(F)=  0.631E-04 g(S)=  0.000E+00 retain N=  3 mean eig= 2.67
 eig:   7.477  0.099  0.428
 bond charge predicted
       N       E                     dE             d eps       ncg     rms          rms(c)
DAV:   1    -0.874644333380E+03    0.10122E-04   -0.18711E-05  1232   0.753E-03    0.317E-03
DAV:   2    -0.874644333779E+03   -0.39901E-06   -0.42707E-06  1024   0.334E-03
 495 F= -.87464433E+03 E0= -.87464433E+03  d E =0.145291E-05  mag=     0.0000
 BRION: g(F)=  0.613E-04 g(S)=  0.000E+00 retain N=  3 mean eig= 0.41
 eig:   0.308  0.308  0.600
 bond charge predicted
       N       E                     dE             d eps       ncg     rms          rms(c)
DAV:   1    -0.874644347557E+03   -0.14177E-04   -0.25596E-03  1712   0.635E-02    0.787E-03
DAV:   2    -0.874644351928E+03   -0.43713E-05   -0.56057E-05  1696   0.922E-03
 496 F= -.87464435E+03 E0= -.87464435E+03  d E =-.181488E-04  mag=     0.0000
 BRION: g(F)=  0.988E-04 g(S)=  0.000E+00 retain N=  4 mean eig= 0.97
 eig:   2.971  0.257  0.257  0.378
 bond charge predicted
       N       E                     dE             d eps       ncg     rms          rms(c)
DAV:   1    -0.874644389697E+03   -0.42140E-04   -0.23931E-02  1728   0.152E-01    0.249E-02
DAV:   2    -0.874644432683E+03   -0.42986E-04   -0.46819E-04  1840   0.183E-02    0.159E-02
DAV:   3    -0.874644430757E+03    0.19255E-05   -0.39246E-06  1280   0.288E-03
 497 F= -.87464443E+03 E0= -.87464443E+03  d E =-.788294E-04  mag=     0.0000
 BRION: g(F)=  0.611E-04 g(S)=  0.000E+00 retain N=  2 mean eig= 3.48
 eig:   0.197  6.766
 bond charge predicted
       N       E                     dE             d eps       ncg     rms          rms(c)
DAV:   1    -0.874644414219E+03    0.18464E-04   -0.10595E-03  1600   0.375E-02    0.556E-03
DAV:   2    -0.874644416704E+03   -0.24846E-05   -0.30927E-05  1136   0.606E-03
 498 F= -.87464442E+03 E0= -.87464442E+03  d E =0.140536E-04  mag=     0.0000
 BRION: g(F)=  0.705E-04 g(S)=  0.000E+00 retain N=  2 mean eig= 0.21
 eig:   0.214  0.214
 bond charge predicted
       N       E                     dE             d eps       ncg     rms          rms(c)
DAV:   1    -0.874644446629E+03   -0.32410E-04   -0.86053E-03  1616   0.925E-02    0.145E-02
DAV:   2    -0.874644462661E+03   -0.16032E-04   -0.17014E-04  1664   0.111E-02    0.849E-03
DAV:   3    -0.874644462043E+03    0.61812E-06   -0.13342E-06   944   0.181E-03
 499 F= -.87464446E+03 E0= -.87464446E+03  d E =-.453388E-04  mag=    -0.0000
 BRION: g(F)=  0.610E-04 g(S)=  0.000E+00 retain N=  3 mean eig= 0.39
 eig:   0.229  0.080  0.863
 bond charge predicted
       N       E                     dE             d eps       ncg     rms          rms(c)
DAV:   1    -0.874644472116E+03   -0.94555E-05   -0.44356E-04  1600   0.234E-02    0.392E-03
DAV:   2    -0.874644472744E+03   -0.62805E-06   -0.78710E-06   992   0.315E-03
 500 F= -.87464447E+03 E0= -.87464447E+03  d E =-.107017E-04  mag=    -0.0000
 BRION: g(F)=  0.544E-04 g(S)=  0.000E+00 retain N=  2 mean eig= 3.45
 eig:   0.042  6.850
--------------------------------------------------------
>>>  Job finished at Tue Jun 28 06:13:23 EDT 2022
