>>>  VASP 5.4.4 with BEEF-vdw and vtst
--------------------------------------------------------
>>>  Job information
     SLURM_JOBID=8751997
     SLURM_JOB_NODELIST=cpn-u22-25
     SLURM_NNODES=1
     SLURMTMPDIR=/scratch/8751997
     working directory = /projects/academic/ericwalk/ruthbell/Ads_Ag-SSZ13/SULPHURS/SO2-O/vtst
--------------------------------------------------------
>>>  Module information
--------------------------------------------------------
>>>  Running Configuration
NPROCS=16
--------------------------------------------------------
>>>  Job started at Tue Jun 28 11:54:53 EDT 2022
--------------------------------------------------------
 running on   16 total cores
 distrk:  each k-point on   16 cores,    1 groups
 distr:  one band on    4 cores,    4 groups
 using from now: INCAR     
 vasp.5.4.4.18Apr17-6-g9f103f2a35 (build Dec 31 2018 11:41:54) complex          
  
 POSCAR found type information on POSCAR  O  Si Al Ag S 
 POSCAR found :  5 types and     114 ions
 scaLAPACK will be used
 LDA part: xc-table for Pade appr. of Perdew
 POSCAR found type information on POSCAR  O  Si Al Ag S 
 POSCAR found :  5 types and     114 ions
 POSCAR, INCAR and KPOINTS ok, starting setup
 FFT: planning ...
 WAVECAR not read
 entering main loop
       N       E                     dE             d eps       ncg     rms          rms(c)
DAV:   1     0.441467454789E+04    0.44147E+04   -0.26084E+05  1800   0.103E+03
DAV:   2    -0.424648023350E+03   -0.48393E+04   -0.46603E+04  2128   0.296E+02
DAV:   3    -0.943999089220E+03   -0.51935E+03   -0.51576E+03  2088   0.102E+02
DAV:   4    -0.954493727791E+03   -0.10495E+02   -0.10454E+02  2160   0.158E+01
DAV:   5    -0.954765378475E+03   -0.27165E+00   -0.27129E+00  2136   0.236E+00    0.872E+01
DAV:   6    -0.601092824725E+03    0.35367E+03   -0.72218E+02  2008   0.391E+01    0.281E+01
DAV:   7    -0.690042312338E+03   -0.88949E+02   -0.83215E+01  2080   0.124E+01    0.193E+01
DAV:   8    -0.761377741634E+03   -0.71335E+02   -0.31350E+01  2032   0.806E+00    0.109E+01
DAV:   9    -0.837840000414E+03   -0.76462E+02   -0.57263E+01  2040   0.890E+00    0.489E+00
DAV:  10    -0.851983439784E+03   -0.14143E+02   -0.85148E+00  2128   0.371E+00    0.351E+00
DAV:  11    -0.867967319889E+03   -0.15984E+02   -0.10783E+01  1904   0.394E+00    0.168E+00
DAV:  12    -0.870386907631E+03   -0.24196E+01   -0.13251E+00  1968   0.143E+00    0.910E-01
DAV:  13    -0.871465915702E+03   -0.10790E+01   -0.45715E-01  1904   0.857E-01    0.404E-01
DAV:  14    -0.871611747407E+03   -0.14583E+00   -0.59211E-02  1952   0.337E-01    0.237E-01
DAV:  15    -0.871625624382E+03   -0.13877E-01   -0.12417E-02  2016   0.231E-01    0.124E-01
DAV:  16    -0.871630103427E+03   -0.44790E-02   -0.40865E-03  2064   0.139E-01    0.848E-02
DAV:  17    -0.871635221013E+03   -0.51176E-02   -0.21938E-03  2056   0.102E-01    0.433E-02
DAV:  18    -0.871638449035E+03   -0.32280E-02   -0.10785E-03  2024   0.712E-02    0.417E-02
DAV:  19    -0.871638933147E+03   -0.48411E-03   -0.37869E-04  2080   0.444E-02    0.185E-02
DAV:  20    -0.871639354330E+03   -0.42118E-03   -0.23644E-04  1976   0.344E-02    0.143E-02
DAV:  21    -0.871639700575E+03   -0.34625E-03   -0.95347E-05  2016   0.224E-02    0.112E-02
DAV:  22    -0.871639828895E+03   -0.12832E-03   -0.62748E-05  2080   0.175E-02    0.413E-03
DAV:  23    -0.871639920670E+03   -0.91775E-04   -0.37412E-05  2048   0.130E-02    0.413E-03
DAV:  24    -0.871639968943E+03   -0.48273E-04   -0.12272E-05  2080   0.702E-03    0.229E-03
DAV:  25    -0.871639995981E+03   -0.27038E-04   -0.84595E-06  2080   0.555E-03    0.172E-03
DAV:  26    -0.871640011238E+03   -0.15257E-04   -0.48107E-06  2056   0.399E-03    0.153E-03
DAV:  27    -0.871640014602E+03   -0.33636E-05   -0.13040E-06  2112   0.203E-03    0.121E-03
DAV:  28    -0.871640015164E+03   -0.56176E-06   -0.75431E-07  2072   0.153E-03    0.120E-03
DAV:  29    -0.871640015102E+03    0.61766E-07   -0.36593E-07  2064   0.102E-03    0.117E-03
DAV:  30    -0.871640015134E+03   -0.32633E-07   -0.10914E-07  2024   0.558E-04    0.116E-03
DAV:  31    -0.871640015152E+03   -0.17884E-07   -0.47610E-08  2000   0.377E-04    0.116E-03
DAV:  32    -0.871640015165E+03   -0.12769E-07   -0.12064E-08  1848   0.197E-04    0.115E-03
DAV:  33    -0.871640015170E+03   -0.53624E-08   -0.47439E-09  1824   0.130E-04
   1 F= -.87164002E+03 E0= -.87164002E+03  d E =-.871640E+03  mag=    -0.0000
quench:  g(F)=  0.000E+00 g(S)=  0.000E+00 dE (1.order)= 0.000E+00
 bond charge predicted
       N       E                     dE             d eps       ncg     rms          rms(c)
DAV:   1    -0.871639990832E+03    0.24333E-04   -0.55135E-03  1792   0.682E-02    0.133E-02
DAV:   2    -0.871639996263E+03   -0.54308E-05   -0.75448E-05  2016   0.716E-03    0.691E-03
DAV:   3    -0.871639995453E+03    0.80971E-06   -0.20357E-06  2064   0.156E-03    0.333E-03
DAV:   4    -0.871639995331E+03    0.12170E-06   -0.79784E-07  1824   0.953E-04    0.149E-03
DAV:   5    -0.871639995284E+03    0.47330E-07   -0.11337E-07  2096   0.438E-04    0.125E-03
DAV:   6    -0.871639995278E+03    0.58790E-08   -0.10032E-08  1736   0.167E-04
   2 F= -.87164000E+03 E0= -.87164000E+03  d E =0.198926E-04  mag=    -0.0000
quench:  g(F)=  0.000E+00 g(S)=  0.000E+00 dE (1.order)= 0.000E+00
 bond charge predicted
       N       E                     dE             d eps       ncg     rms          rms(c)
DAV:   1    -0.871639984571E+03    0.10712E-04   -0.10884E-02  1760   0.936E-02    0.205E-02
DAV:   2    -0.871639995725E+03   -0.11154E-04   -0.18734E-04  2080   0.108E-02    0.106E-02
DAV:   3    -0.871639993135E+03    0.25903E-05   -0.55693E-06  2144   0.269E-03    0.513E-03
DAV:   4    -0.871639992821E+03    0.31460E-06   -0.24506E-06  2000   0.159E-03    0.187E-03
DAV:   5    -0.871639992870E+03   -0.49811E-07   -0.33523E-07  2112   0.773E-04    0.139E-03
DAV:   6    -0.871639992863E+03    0.75379E-08   -0.33697E-08  1896   0.285E-04
   3 F= -.87163999E+03 E0= -.87163999E+03  d E =0.241502E-05  mag=    -0.0000
quench:  g(F)=  0.000E+00 g(S)=  0.000E+00 dE (1.order)= 0.000E+00
 bond charge predicted
       N       E                     dE             d eps       ncg     rms          rms(c)
DAV:   1    -0.871640015355E+03   -0.22484E-04   -0.10896E-02  1760   0.935E-02    0.167E-02
DAV:   2    -0.871640024360E+03   -0.90052E-05   -0.12711E-04  2072   0.911E-03    0.956E-03
DAV:   3    -0.871640023086E+03    0.12739E-05   -0.31874E-06  2112   0.200E-03    0.447E-03
DAV:   4    -0.871640023030E+03    0.55581E-07   -0.15750E-06  1824   0.130E-03    0.167E-03
DAV:   5    -0.871640022981E+03    0.49673E-07   -0.22834E-07  2016   0.603E-04    0.140E-03
DAV:   6    -0.871640022962E+03    0.19107E-07   -0.26433E-08  1680   0.198E-04    0.123E-03
DAV:   7    -0.871640022966E+03   -0.42855E-08   -0.15648E-08  1624   0.243E-04
   4 F= -.87164002E+03 E0= -.87164002E+03  d E =-.301030E-04  mag=    -0.0000
quench:  g(F)=  0.000E+00 g(S)=  0.000E+00 dE (1.order)= 0.000E+00
 bond charge predicted
       N       E                     dE             d eps       ncg     rms          rms(c)
DAV:   1    -0.871639981421E+03    0.41541E-04   -0.10983E-02  1760   0.985E-02    0.158E-02
DAV:   2    -0.871639993622E+03   -0.12202E-04   -0.14013E-04  2008   0.906E-03    0.891E-03
DAV:   3    -0.871639992870E+03    0.75197E-06   -0.16999E-06  1968   0.162E-03    0.462E-03
DAV:   4    -0.871639992748E+03    0.12243E-06   -0.84247E-07  1744   0.111E-03    0.165E-03
DAV:   5    -0.871639992759E+03   -0.11220E-07   -0.18334E-07  2056   0.492E-04    0.137E-03
DAV:   6    -0.871639992760E+03   -0.11642E-08   -0.26841E-08  1616   0.203E-04
   5 F= -.87163999E+03 E0= -.87163999E+03  d E =0.302055E-04  mag=    -0.0000
quench:  g(F)=  0.000E+00 g(S)=  0.000E+00 dE (1.order)= 0.000E+00
 bond charge predicted
       N       E                     dE             d eps       ncg     rms          rms(c)
DAV:   1    -0.871639965141E+03    0.27618E-04   -0.11009E-02  1760   0.955E-02    0.201E-02
DAV:   2    -0.871639974842E+03   -0.97006E-05   -0.15102E-04  2144   0.101E-02    0.103E-02
DAV:   3    -0.871639973751E+03    0.10905E-05   -0.43341E-06  2160   0.284E-03    0.585E-03
DAV:   4    -0.871639973995E+03   -0.24409E-06   -0.24910E-06  1904   0.157E-03    0.210E-03
DAV:   5    -0.871639974025E+03   -0.29511E-07   -0.35497E-07  2192   0.772E-04    0.141E-03
DAV:   6    -0.871639973998E+03    0.27139E-07   -0.40800E-08  1984   0.269E-04    0.124E-03
DAV:   7    -0.871639973995E+03    0.22992E-08   -0.21179E-08  1888   0.363E-04
   6 F= -.87163997E+03 E0= -.87163997E+03  d E =0.187651E-04  mag=    -0.0000
quench:  g(F)=  0.000E+00 g(S)=  0.000E+00 dE (1.order)= 0.000E+00
 bond charge predicted
       N       E                     dE             d eps       ncg     rms          rms(c)
DAV:   1    -0.871640018742E+03   -0.44745E-04   -0.10817E-02  1760   0.924E-02    0.175E-02
DAV:   2    -0.871640024666E+03   -0.59241E-05   -0.98894E-05  2032   0.820E-03    0.989E-03
DAV:   3    -0.871640023557E+03    0.11094E-05   -0.24141E-06  2144   0.217E-03    0.491E-03
DAV:   4    -0.871640023459E+03    0.97789E-07   -0.14495E-06  1808   0.126E-03    0.164E-03
DAV:   5    -0.871640023487E+03   -0.27547E-07   -0.23287E-07  2096   0.454E-04    0.140E-03
DAV:   6    -0.871640023490E+03   -0.28012E-08   -0.19056E-08  1792   0.181E-04
   7 F= -.87164002E+03 E0= -.87164002E+03  d E =-.494943E-04  mag=    -0.0000
quench:  g(F)=  0.000E+00 g(S)=  0.000E+00 dE (1.order)= 0.000E+00
 bond charge predicted
       N       E                     dE             d eps       ncg     rms          rms(c)
DAV:   1    -0.871639988520E+03    0.34966E-04   -0.63273E-03  1760   0.706E-02    0.162E-02
DAV:   2    -0.871639996493E+03   -0.79722E-05   -0.12602E-04  2048   0.834E-03    0.103E-02
DAV:   3    -0.871639994944E+03    0.15483E-05   -0.37835E-06  2128   0.233E-03    0.526E-03
DAV:   4    -0.871639994500E+03    0.44414E-06   -0.12824E-06  1976   0.156E-03    0.196E-03
DAV:   5    -0.871639994523E+03   -0.22985E-07   -0.31552E-07  2048   0.656E-04    0.142E-03
DAV:   6    -0.871639994536E+03   -0.12653E-07   -0.40615E-08  2064   0.383E-04    0.122E-03
DAV:   7    -0.871639994530E+03    0.55516E-08   -0.10008E-08  1832   0.269E-04
   8 F= -.87163999E+03 E0= -.87163999E+03  d E =0.289593E-04  mag=    -0.0000
quench:  g(F)=  0.000E+00 g(S)=  0.000E+00 dE (1.order)= 0.000E+00
 bond charge predicted
       N       E                     dE             d eps       ncg     rms          rms(c)
DAV:   1    -0.871639959637E+03    0.34899E-04   -0.18981E-03  1760   0.365E-02    0.162E-02
DAV:   2    -0.871639968692E+03   -0.90548E-05   -0.12269E-04  1968   0.868E-03    0.134E-02
DAV:   3    -0.871639966746E+03    0.19459E-05   -0.37513E-06  2160   0.260E-03    0.685E-03
DAV:   4    -0.871639965648E+03    0.10978E-05   -0.16886E-06  2304   0.260E-03    0.206E-03
DAV:   5    -0.871639965637E+03    0.11431E-07   -0.42639E-07  2096   0.929E-04    0.156E-03
DAV:   6    -0.871639965607E+03    0.29650E-07   -0.63815E-08  2256   0.584E-04    0.124E-03
DAV:   7    -0.871639965597E+03    0.10376E-07   -0.13741E-08  2128   0.467E-04    0.117E-03
DAV:   8    -0.871639965606E+03   -0.95315E-08   -0.12356E-08  1952   0.377E-04
   9 F= -.87163997E+03 E0= -.87163997E+03  d E =0.289240E-04  mag=     0.0000
quench:  g(F)=  0.000E+00 g(S)=  0.000E+00 dE (1.order)= 0.000E+00
 bond charge predicted
       N       E                     dE             d eps       ncg     rms          rms(c)
DAV:   1    -0.871640002786E+03   -0.37189E-04   -0.16833E-03  1792   0.306E-02    0.136E-02
DAV:   2    -0.871640008734E+03   -0.59489E-05   -0.80668E-05  2048   0.651E-03    0.101E-02
DAV:   3    -0.871640007818E+03    0.91660E-06   -0.24733E-06  2080   0.207E-03    0.474E-03
DAV:   4    -0.871640007470E+03    0.34833E-06   -0.61997E-07  2248   0.163E-03    0.189E-03
DAV:   5    -0.871640007447E+03    0.22701E-07   -0.18960E-07  2048   0.604E-04    0.137E-03
DAV:   6    -0.871640007441E+03    0.58862E-08   -0.46474E-08  2048   0.416E-04
  10 F= -.87164001E+03 E0= -.87164001E+03  d E =-.418346E-04  mag=     0.0000
quench:  g(F)=  0.000E+00 g(S)=  0.000E+00 dE (1.order)= 0.000E+00
--------------------------------------------------------
>>>  Job finished at Tue Jun 28 12:49:09 EDT 2022
