 vasp.5.4.4.18Apr17-6-g9f103f2a35 (build Dec 31 2018 11:41:54) complex          
  
 executed on             LinuxIFC date 2022.06.28  11:54:54
 running on   16 total cores
 distrk:  each k-point on   16 cores,    1 groups
 distr:  one band on NCORES_PER_BAND=   4 cores,    4 groups


--------------------------------------------------------------------------------------------------------


 INCAR:
 POTCAR:   PAW_PBE O 08Apr2002                    
 POTCAR:   PAW_PBE Si 05Jan2001                   
 POTCAR:   PAW_PBE Al 04Jan2001                   
 POTCAR:   PAW_PBE Ag 06Sep2000                   
 POTCAR:    PAW_PBE S 17Jan2003                   
 POTCAR:   PAW_PBE O 08Apr2002                    
   VRHFIN =O: s2p4                                                              
   LEXCH  = PE                                                                  
   EATOM  =   432.3788 eV,   31.7789 Ry                                         
                                                                                
   TITEL  = PAW_PBE O 08Apr2002                                                 
   LULTRA =        F    use ultrasoft PP ?                                      
   IUNSCR =        0    unscreen: 0-lin 1-nonlin 2-no                           
   RPACOR =     .000    partial core radius                                     
   POMASS =   16.000; ZVAL   =    6.000    mass and valenz                      
   RCORE  =    1.520    outmost cutoff radius                                   
   RWIGS  =    1.550; RWIGS  =     .820    wigner-seitz radius (au A)           
   ENMAX  =  400.000; ENMIN  =  300.000 eV                                      
   ICORE  =        2    local potential                                         
   LCOR   =        T    correct aug charges                                     
   LPAW   =        T    paw PP                                                  
   EAUG   =  605.392                                                            
   DEXC   =     .000                                                            
   RMAX   =    2.264    core radius for proj-oper                               
   RAUG   =    1.300    factor for augmentation sphere                          
   RDEP   =    1.550    radius for radial grids                                 
   QCUT   =   -5.520; QGAM   =   11.041    optimization parameters              
                                                                                
   Description                                                                  
     l     E      TYP  RCUT    TYP  RCUT                                        
     0   .000     23  1.200                                                     
     0  -.700     23  1.200                                                     
     1   .000     23  1.520                                                     
     1   .600     23  1.520                                                     
     2   .000      7  1.500                                                     
  local pseudopotential read in
  atomic valenz-charges read in
  non local Contribution for L=           0  read in
    real space projection operators read in
  non local Contribution for L=           0  read in
    real space projection operators read in
  non local Contribution for L=           1  read in
    real space projection operators read in
  non local Contribution for L=           1  read in
    real space projection operators read in
    PAW grid and wavefunctions read in
 
   number of l-projection  operators is LMAX  =           4
   number of lm-projection operators is LMMAX =           8
 
 POTCAR:   PAW_PBE Si 05Jan2001                   
   VRHFIN =Si: s2p2                                                             
   LEXCH  = PE                                                                  
   EATOM  =   103.0669 eV,    7.5752 Ry                                         
                                                                                
   TITEL  = PAW_PBE Si 05Jan2001                                                
   LULTRA =        F    use ultrasoft PP ?                                      
   IUNSCR =        1    unscreen: 0-lin 1-nonlin 2-no                           
   RPACOR =    1.500    partial core radius                                     
   POMASS =   28.085; ZVAL   =    4.000    mass and valenz                      
   RCORE  =    1.900    outmost cutoff radius                                   
   RWIGS  =    2.480; RWIGS  =    1.312    wigner-seitz radius (au A)           
   ENMAX  =  245.345; ENMIN  =  184.009 eV                                      
   ICORE  =        2    local potential                                         
   LCOR   =        T    correct aug charges                                     
   LPAW   =        T    paw PP                                                  
   EAUG   =  322.069                                                            
   DEXC   =    -.007                                                            
   RMAX   =    2.944    core radius for proj-oper                               
   RAUG   =    1.300    factor for augmentation sphere                          
   RDEP   =    1.993    radius for radial grids                                 
   QCUT   =   -4.246; QGAM   =    8.493    optimization parameters              
                                                                                
   Description                                                                  
     l     E      TYP  RCUT    TYP  RCUT                                        
     0   .000     23  1.900                                                     
     0   .000     23  1.900                                                     
     1   .000     23  1.900                                                     
     1   .000     23  1.900                                                     
     2   .000      7  1.900                                                     
  local pseudopotential read in
  partial core-charges read in
  atomic valenz-charges read in
  non local Contribution for L=           0  read in
    real space projection operators read in
  non local Contribution for L=           0  read in
    real space projection operators read in
  non local Contribution for L=           1  read in
    real space projection operators read in
  non local Contribution for L=           1  read in
    real space projection operators read in
    PAW grid and wavefunctions read in
 
   number of l-projection  operators is LMAX  =           4
   number of lm-projection operators is LMMAX =           8
 
 POTCAR:   PAW_PBE Al 04Jan2001                   
   VRHFIN =Al: s2p1                                                             
   LEXCH  = PE                                                                  
   EATOM  =    53.5387 eV,    3.9350 Ry                                         
                                                                                
   TITEL  = PAW_PBE Al 04Jan2001                                                
   LULTRA =        F    use ultrasoft PP ?                                      
   IUNSCR =        1    unscreen: 0-lin 1-nonlin 2-no                           
   RPACOR =    1.500    partial core radius                                     
   POMASS =   26.982; ZVAL   =    3.000    mass and valenz                      
   RCORE  =    1.900    outmost cutoff radius                                   
   RWIGS  =    2.650; RWIGS  =    1.402    wigner-seitz radius (au A)           
   ENMAX  =  240.300; ENMIN  =  180.225 eV                                      
   ICORE  =        2    local potential                                         
   LCOR   =        T    correct aug charges                                     
   LPAW   =        T    paw PP                                                  
   EAUG   =  291.052                                                            
   DEXC   =    -.041                                                            
   RMAX   =    2.974    core radius for proj-oper                               
   RAUG   =    1.300    factor for augmentation sphere                          
   RDEP   =    1.966    radius for radial grids                                 
   QCUT   =   -4.203; QGAM   =    8.405    optimization parameters              
                                                                                
   Description                                                                  
     l     E      TYP  RCUT    TYP  RCUT                                        
     0   .000     23  1.900                                                     
     0   .000     23  1.900                                                     
     1   .000     23  1.900                                                     
     1  1.000     23  1.900                                                     
     2   .000      7  1.900                                                     
  local pseudopotential read in
  partial core-charges read in
  atomic valenz-charges read in
  non local Contribution for L=           0  read in
    real space projection operators read in
  non local Contribution for L=           0  read in
    real space projection operators read in
  non local Contribution for L=           1  read in
    real space projection operators read in
  non local Contribution for L=           1  read in
    real space projection operators read in
    PAW grid and wavefunctions read in
 
   number of l-projection  operators is LMAX  =           4
   number of lm-projection operators is LMMAX =           8
 
 POTCAR:   PAW_PBE Ag 06Sep2000                   
   VRHFIN =Ag : s1 d10                                                          
   LEXCH  = PE                                                                  
   EATOM  =  1037.4134 eV,   76.2477 Ry                                         
                                                                                
   TITEL  = PAW_PBE Ag 06Sep2000                                                
   LULTRA =        F    use ultrasoft PP ?                                      
   IUNSCR =        1    unscreen: 0-lin 1-nonlin 2-no                           
   RPACOR =    2.000    partial core radius                                     
   POMASS =  107.868; ZVAL   =   11.000    mass and valenz                      
   RCORE  =    2.400    outmost cutoff radius                                   
   RWIGS  =    2.840; RWIGS  =    1.503    wigner-seitz radius (au A)           
   ENMAX  =  249.846; ENMIN  =  187.385 eV                                      
   RCLOC  =    1.962    cutoff for local pot                                    
   LCOR   =        T    correct aug charges                                     
   LPAW   =        T    paw PP                                                  
   EAUG   =  412.496                                                            
   DEXC   =    -.047                                                            
   RMAX   =    2.917    core radius for proj-oper                               
   RAUG   =    1.300    factor for augmentation sphere                          
   RDEP   =    2.416    radius for radial grids                                 
   QCUT   =   -4.285; QGAM   =    8.570    optimization parameters              
                                                                                
   Description                                                                  
     l     E      TYP  RCUT    TYP  RCUT                                        
     2   .000     23  2.400                                                     
     2   .000     23  2.400                                                     
     0   .000     23  2.400                                                     
     0   .000     23  2.400                                                     
     1  -.200     23  2.400                                                     
     1  1.500     23  2.400                                                     
     3   .000      7   .000                                                     
  local pseudopotential read in
  partial core-charges read in
  atomic valenz-charges read in
  non local Contribution for L=           2  read in
    real space projection operators read in
  non local Contribution for L=           2  read in
    real space projection operators read in
  non local Contribution for L=           0  read in
    real space projection operators read in
  non local Contribution for L=           0  read in
    real space projection operators read in
  non local Contribution for L=           1  read in
    real space projection operators read in
  non local Contribution for L=           1  read in
    real space projection operators read in
    PAW grid and wavefunctions read in
 
   number of l-projection  operators is LMAX  =           6
   number of lm-projection operators is LMMAX =          18
 
 POTCAR:    PAW_PBE S 17Jan2003                   
   VRHFIN =S : s2p4                                                             
   LEXCH  = PE                                                                  
   EATOM  =   276.8230 eV,   20.3459 Ry                                         
                                                                                
   TITEL  = PAW_PBE S 17Jan2003                                                 
   LULTRA =        F    use ultrasoft PP ?                                      
   IUNSCR =        1    unscreen: 0-lin 1-nonlin 2-no                           
   RPACOR =    1.500    partial core radius                                     
   POMASS =   32.066; ZVAL   =    6.000    mass and valenz                      
   RCORE  =    1.900    outmost cutoff radius                                   
   RWIGS  =    2.200; RWIGS  =    1.164    wigner-seitz radius (au A)           
   ENMAX  =  280.000; ENMIN  =  194.016 eV                                      
   ICORE  =        2    local potential                                         
   LCOR   =        T    correct aug charges                                     
   LPAW   =        T    paw PP                                                  
   EAUG   =  335.092                                                            
   DEXC   =     .000                                                            
   RMAX   =    2.867    core radius for proj-oper                               
   RAUG   =    1.300    factor for augmentation sphere                          
   RDEP   =    1.954    radius for radial grids                                 
   QCUT   =   -4.360; QGAM   =    8.721    optimization parameters              
                                                                                
   Description                                                                  
     l     E      TYP  RCUT    TYP  RCUT                                        
     0   .000     23  1.900                                                     
     0   .000     23  1.900                                                     
     1   .000     23  1.900                                                     
     1   .000     23  1.900                                                     
     2   .000     23  1.900                                                     
  local pseudopotential read in
  partial core-charges read in
  atomic valenz-charges read in
  non local Contribution for L=           0  read in
    real space projection operators read in
  non local Contribution for L=           0  read in
    real space projection operators read in
  non local Contribution for L=           1  read in
    real space projection operators read in
  non local Contribution for L=           1  read in
    real space projection operators read in
    PAW grid and wavefunctions read in
 
   number of l-projection  operators is LMAX  =           4
   number of lm-projection operators is LMMAX =           8
 
 Optimization of the real space projectors (new method)

 maximal supplied QI-value         = 24.76
 optimisation between [QCUT,QGAM] = [ 10.15, 20.30] = [ 28.85,115.39] Ry 
 Optimized for a Real-space Cutoff    1.51 Angstroem

   l    n(q)    QCUT    max X(q) W(low)/X(q) W(high)/X(q)  e(spline) 
   0      9    10.150     4.192    0.32E-04    0.13E-04    0.13E-06
   0      9    10.150     8.473    0.18E-03    0.20E-03    0.43E-06
   1      9    10.150     2.474    0.32E-04    0.33E-04    0.64E-07
   1      9    10.150     3.912    0.13E-03    0.16E-03    0.33E-06
 Optimization of the real space projectors (new method)

 maximal supplied QI-value         = 19.84
 optimisation between [QCUT,QGAM] = [ 10.12, 20.44] = [ 28.68,116.96] Ry 
 Optimized for a Real-space Cutoff    1.38 Angstroem

   l    n(q)    QCUT    max X(q) W(low)/X(q) W(high)/X(q)  e(spline) 
   0      8    10.119     8.708    0.16E-04    0.67E-05    0.60E-08
   0      8    10.119   106.241    0.56E-04    0.11E-03    0.54E-07
   1      8    10.119     5.901    0.16E-04    0.16E-05    0.22E-07
   1      8    10.119    73.241    0.22E-03    0.17E-03    0.18E-06
 Optimization of the real space projectors (new method)

 maximal supplied QI-value         = 19.84
 optimisation between [QCUT,QGAM] = [ 10.12, 20.44] = [ 28.68,116.96] Ry 
 Optimized for a Real-space Cutoff    1.26 Angstroem

   l    n(q)    QCUT    max X(q) W(low)/X(q) W(high)/X(q)  e(spline) 
   0      8    10.119    13.410    0.28E-04    0.17E-04    0.51E-08
   0      8    10.119   140.052    0.10E-03    0.16E-03    0.42E-07
   1      7    10.119     9.624    0.38E-04    0.42E-05    0.15E-07
   1      7    10.119    53.353    0.23E-03    0.17E-03    0.13E-06
 Optimization of the real space projectors (new method)

 maximal supplied QI-value         = 15.68
 optimisation between [QCUT,QGAM] = [ 10.20, 20.39] = [ 29.11,116.42] Ry 
 Optimized for a Real-space Cutoff    1.51 Angstroem

   l    n(q)    QCUT    max X(q) W(low)/X(q) W(high)/X(q)  e(spline) 
   2      8    10.195     3.831    0.11E-04    0.20E-04    0.48E-07
   2      8    10.195    20.184    0.23E-03    0.42E-03    0.20E-06
   0      9    10.195    16.770    0.13E-04    0.90E-05    0.63E-08
   0      9    10.195    80.708    0.19E-03    0.15E-03    0.44E-07
   1      9    10.195     6.696    0.12E-04    0.45E-04    0.30E-07
   1      9    10.195     8.973    0.12E-03    0.15E-03    0.13E-06
 Optimization of the real space projectors (new method)

 maximal supplied QI-value         = 19.84
 optimisation between [QCUT,QGAM] = [ 10.12, 20.44] = [ 28.68,116.96] Ry 
 Optimized for a Real-space Cutoff    1.42 Angstroem

   l    n(q)    QCUT    max X(q) W(low)/X(q) W(high)/X(q)  e(spline) 
   0      9    10.119     5.487    0.15E-04    0.47E-05    0.66E-08
   0      9    10.119    85.627    0.51E-04    0.92E-04    0.63E-07
   1      8    10.119     3.530    0.37E-05    0.76E-05    0.28E-07
   1      8    10.119    42.714    0.16E-03    0.16E-03    0.23E-06
 PAW_PBE O 08Apr2002                    :
 energy of atom  1       EATOM= -432.3788
 kinetic energy error for atom=    0.1156 (will be added to EATOM!!)
 PAW_PBE Si 05Jan2001                   :
 energy of atom  2       EATOM= -103.0669
 kinetic energy error for atom=    0.0012 (will be added to EATOM!!)
 PAW_PBE Al 04Jan2001                   :
 energy of atom  3       EATOM=  -53.5387
 kinetic energy error for atom=    0.0005 (will be added to EATOM!!)
 PAW_PBE Ag 06Sep2000                   :
 energy of atom  4       EATOM=-1037.4134
 kinetic energy error for atom=    0.0091 (will be added to EATOM!!)
  PAW_PBE S 17Jan2003                   :
 energy of atom  5       EATOM= -276.8230
 kinetic energy error for atom=    0.0046 (will be added to EATOM!!)
 
 
 POSCAR: O  C                                    
  positions in direct lattice
  velocities in cartesian coordinates
 exchange correlation table for  LEXCH =        8
   RHO(1)=    0.500       N(1)  =     2000
   RHO(2)=  100.500       N(2)  =     4000

 VTST: version 3.2, (02/03/18)

 CHAIN: initializing optimizer
 
 OPT: Using VASP Quick-Min optimizer
 CHAIN: Read ICHAIN            1
 
 POSCAR: O  C                                    
  positions in direct lattice
  velocities in cartesian coordinates
 CHAIN: Running the Dynamical Matrix
 


--------------------------------------------------------------------------------------------------------


 ion  position               nearest neighbor table
   1  0.899  0.099  0.118-  75 1.63  82 1.63
   2  0.107  0.888  0.882-  81 1.62  76 1.62
   3  0.894  0.795  0.128-  85 1.62  77 1.64
   4  0.096  0.198  0.866-  78 1.63  84 1.63
   5  0.196  0.104  0.116-  79 1.63  83 1.63
   6  0.802  0.905  0.881-  80 1.59 108 1.73
   7  0.555  0.427  0.456-  86 1.62  92 1.63
   8  0.764  0.234  0.220-  91 1.59 109 1.73
   9  0.567  0.142  0.471-  96 1.64  87 1.64
  10  0.767  0.540  0.207-  95 1.63  88 1.63
  11  0.864  0.426  0.464-  94 1.63  89 1.64
  12  0.465  0.237  0.183-  90 1.63  93 1.64
  13  0.232  0.777  0.776- 104 1.61  97 1.64
  14  0.424  0.570  0.525-  98 1.66 103 1.67 112 2.54
  15  0.231  0.449  0.772-  99 1.61 107 1.62
  16  0.429  0.852  0.531- 100 1.63 110 1.79 112 2.27
  17  0.531  0.758  0.806- 101 1.63 106 1.64
  18  0.125  0.561  0.533- 105 1.65 102 1.68 112 2.45
  19  0.978  0.317  0.162-  75 1.61  91 1.63
  20  0.022  0.670  0.841- 104 1.62  76 1.63
  21  0.679  0.674  0.174-  95 1.61  77 1.63
  22  0.314  0.317  0.819- 107 1.62  78 1.63
  23  0.319  0.016  0.178-  79 1.61  93 1.63
  24  0.664  0.981  0.827- 106 1.62  80 1.63
  25  0.326  0.988  0.838-  81 1.61  97 1.63
  26  0.678  0.005  0.163-  82 1.60 109 1.74 111 2.54
  27  0.671  0.674  0.813- 101 1.61 108 1.77 113 2.36
  28  0.333  0.324  0.158-  83 1.62  90 1.62
  29  0.017  0.338  0.832-  99 1.61  84 1.63
  30  0.988  0.671  0.174-  88 1.62  85 1.62
  31  0.647  0.641  0.505- 103 1.61  86 1.62
  32  0.343  0.994  0.475-  87 1.59 110 1.71
  33  0.995  0.338  0.499- 105 1.61  89 1.64
  34  0.337  0.351  0.482-  98 1.61  92 1.63
  35  0.987  0.643  0.505- 102 1.62  94 1.62
  36  0.650  0.008  0.515- 100 1.61  96 1.64
  37  0.118  0.244  0.130-  83 1.61  75 1.62
  38  0.888  0.752  0.855-  76 1.62 108 1.77 113 2.35
  39  0.762  0.879  0.112-  82 1.60  77 1.61
  40  0.227  0.108  0.870-  78 1.61  81 1.62
  41  0.113  0.883  0.127-  79 1.61  85 1.61
  42  0.876  0.124  0.861-  84 1.61  80 1.63
  43  0.775  0.557  0.468-  86 1.61  94 1.61
  44  0.536  0.088  0.175-  93 1.62 109 1.79 111 2.31
  45  0.415  0.210  0.468-  92 1.60  87 1.64
  46  0.902  0.454  0.195-  88 1.61  91 1.63
  47  0.785  0.207  0.452-  89 1.60  96 1.63
  48  0.547  0.457  0.196-  90 1.61  95 1.62
  49  0.449  0.896  0.807- 106 1.62  97 1.64
  50  0.209  0.427  0.543- 105 1.62  98 1.62
  51  0.123  0.557  0.802-  99 1.61 104 1.62
  52  0.579  0.788  0.520- 103 1.61 100 1.64
  53  0.450  0.536  0.801- 107 1.62 101 1.63
  54  0.203  0.777  0.545- 102 1.58 110 1.74
  55  1.000  0.261  0.995-  84 1.62  75 1.63
  56  0.990  0.728  0.003-  76 1.62  85 1.63
  57  0.734  0.714  1.000-  77 1.60 108 1.72
  58  0.256  0.266  0.992-  78 1.63  83 1.63
  59  0.271  0.004  0.004-  81 1.63  79 1.64
  60  0.662  0.591  0.335-  86 1.62  95 1.63
  61  0.631  0.049  0.342-  96 1.60 109 1.72
  62  0.442  0.110  0.325-  93 1.61  87 1.63
  63  0.920  0.584  0.336-  94 1.62  88 1.63
  64  0.940  0.348  0.331-  89 1.62  91 1.64
  65  0.405  0.323  0.323-  92 1.62  90 1.63
  66  0.359  0.951  0.667-  97 1.59 110 1.74
  67  0.355  0.410  0.655-  98 1.62 107 1.64
  68  0.057  0.409  0.666- 105 1.62  99 1.63
  69  0.576  0.897  0.667- 106 1.61 100 1.62
  70  0.567  0.660  0.662- 103 1.61 101 1.63
  71  0.055  0.639  0.671- 102 1.64 104 1.64
  72  0.731  0.012  0.994-  80 1.66  82 1.67 111 2.49
  73  0.755  0.442  0.688- 114 1.47 113 2.24
  74  0.740  0.255  0.669- 114 1.44
  75  0.997  0.229  0.102-  19 1.61  37 1.62   1 1.63  55 1.63  91 3.10  83 3.10  84 3.13  82 3.13

  76  0.002  0.761  0.897-  38 1.62  56 1.62   2 1.62  20 1.63 104 3.06  85 3.12 108 3.17
  77  0.766  0.764  0.100-  57 1.60  39 1.61  21 1.63   3 1.64  95 3.01 108 3.08  85 3.10
  78  0.222  0.222  0.888-  40 1.61  58 1.63  22 1.63   4 1.63 107 3.07  83 3.11  84 3.13
  79  0.224  0.002  0.106-  41 1.61  23 1.61   5 1.63  59 1.64  93 3.04  81 3.07
  80  0.771  0.002  0.890-   6 1.59  24 1.63  42 1.63  72 1.66 106 3.07  82 3.09  84 3.10 108 3.23

  81  0.232  0.996  0.899-  25 1.61  40 1.62   2 1.62  59 1.63  97 3.07  79 3.07
  82  0.769  0.999  0.099-  26 1.60  39 1.60   1 1.63  72 1.67  80 3.09  75 3.13 109 3.16 111 3.16

  83  0.226  0.234  0.099-  37 1.61  28 1.62   5 1.63  58 1.63  90 3.06  75 3.10  78 3.11
  84  0.997  0.228  0.890-  42 1.61  55 1.62  29 1.63   4 1.63  99 3.06  80 3.10  78 3.13  75 3.13

  85  0.995  0.769  0.107-  41 1.61   3 1.62  30 1.62  56 1.63  88 3.04  77 3.10  76 3.12
  86  0.659  0.553  0.439-  43 1.61  60 1.62   7 1.62  31 1.62 103 3.07  94 3.12  95 3.13  92 3.13

  87  0.441  0.110  0.435-  32 1.59  62 1.63  45 1.64   9 1.64  96 3.02  92 3.04 110 3.07
  88  0.893  0.561  0.228-  46 1.61  30 1.62  63 1.63  10 1.63  85 3.04  91 3.09
  89  0.893  0.328  0.434-  47 1.60  64 1.62  33 1.64  11 1.64 105 3.03  91 3.06  94 3.11
  90  0.438  0.335  0.216-  48 1.61  28 1.62  65 1.63  12 1.63  83 3.06  93 3.06  95 3.13
  91  0.891  0.335  0.227-   8 1.59  19 1.63  46 1.63  64 1.64  89 3.06  88 3.09  75 3.10 109 3.24

  92  0.429  0.326  0.430-  45 1.60  65 1.62   7 1.63  34 1.63  87 3.04  98 3.05  86 3.13
  93  0.441  0.113  0.216-  62 1.61  44 1.62  23 1.63  12 1.64  79 3.04  90 3.06 109 3.07
  94  0.886  0.552  0.441-  43 1.61  63 1.62  35 1.62  11 1.63 102 3.05  89 3.11  86 3.12
  95  0.665  0.565  0.228-  21 1.61  48 1.62  60 1.63  10 1.63  77 3.01  86 3.13  90 3.13
  96  0.656  0.101  0.442-  61 1.60  47 1.63  36 1.64   9 1.64  87 3.02 100 3.04 109 3.11
  97  0.341  0.904  0.768-  66 1.59  25 1.63  49 1.64  13 1.64  81 3.07 106 3.08 110 3.12
  98  0.332  0.437  0.552-  34 1.61  50 1.62  67 1.62  14 1.66  92 3.05 103 3.10 107 3.10
  99  0.108  0.438  0.768-  29 1.61  15 1.61  51 1.61  68 1.63  84 3.06 104 3.07 105 3.08
 100  0.558  0.889  0.558-  36 1.61  69 1.62  16 1.63  52 1.64 103 3.04  96 3.04 110 3.17 112 3.33

 101  0.555  0.658  0.771-  27 1.61  70 1.63  53 1.63  17 1.63 107 3.07 106 3.08 108 3.13
 102  0.094  0.660  0.564-  54 1.58  35 1.62  71 1.64  18 1.68  94 3.05 104 3.08 105 3.13 112 3.27

 103  0.556  0.666  0.554-  70 1.61  31 1.61  52 1.61  14 1.67 100 3.04  86 3.07  98 3.10
 104  0.111  0.664  0.772-  13 1.61  20 1.62  51 1.62  71 1.64  76 3.06  99 3.07 102 3.08
 105  0.095  0.431  0.560-  33 1.61  50 1.62  68 1.62  18 1.65  89 3.03  99 3.08 102 3.13
 106  0.555  0.883  0.775-  69 1.61  49 1.62  24 1.62  17 1.64  80 3.07 101 3.08  97 3.08
 107  0.337  0.428  0.762-  22 1.62  53 1.62  15 1.62  67 1.64  78 3.07 101 3.07  98 3.10
 108  0.773  0.767  0.892-  57 1.72   6 1.73  27 1.77  38 1.77  77 3.08 113 3.09 101 3.13  76 3.17
                            80 3.23
 109  0.656  0.096  0.231-  61 1.72   8 1.73  26 1.74  44 1.79  93 3.07 111 3.10  96 3.11  82 3.16
                            91 3.24
 110  0.332  0.900  0.556-  32 1.71  54 1.74  66 1.74  16 1.79  87 3.07  97 3.12 100 3.17 112 3.24

 111  0.560  0.022  0.037-  44 2.31  72 2.49  26 2.54 109 3.10  82 3.16
 112  0.320  0.673  0.479-  16 2.27  18 2.45  14 2.54 110 3.24 102 3.27 100 3.33
 113  0.783  0.602  0.755-  73 2.24  38 2.35  27 2.36 108 3.09
 114  0.797  0.365  0.710-  74 1.44  73 1.47
 
  LATTYP: Found a hexagonal cell.
 ALAT       =    13.6750001907
 C/A-ratio  =     1.0798537472
  
  Lattice vectors:
  
 A1 = (  13.6750001907,   0.0000000000,   0.0000000000)
 A2 = (  -6.8375000954,  11.8428975619,   0.0000000000)
 A3 = (   0.0000000000,   0.0000000000,  14.7670001984)


Analysis of symmetry for initial positions (statically):
=====================================================================
 Subroutine PRICEL returns:
 Original cell was already a primitive cell.
 

 Routine SETGRP: Setting up the symmetry group for a 
 hexagonal supercell.


 Subroutine GETGRP returns: Found  1 space group operations
 (whereof  1 operations were pure point group operations)
 out of a pool of 24 trial point group operations.


The static configuration has the point symmetry C_1 .


Analysis of symmetry for dynamics (positions and initial velocities):
=====================================================================
 Subroutine PRICEL returns:
 Original cell was already a primitive cell.
 

 Routine SETGRP: Setting up the symmetry group for a 
 hexagonal supercell.


 Subroutine GETGRP returns: Found  1 space group operations
 (whereof  1 operations were pure point group operations)
 out of a pool of 24 trial point group operations.


The dynamic configuration has the point symmetry C_1 .


Analysis of structural, dynamic, and magnetic symmetry:
=====================================================================
 Subroutine PRICEL returns:
 Original cell was already a primitive cell.
 

 Routine SETGRP: Setting up the symmetry group for a 
 hexagonal supercell.


 Subroutine GETGRP returns: Found  1 space group operations
 (whereof  1 operations were pure point group operations)
 out of a pool of 24 trial point group operations.


The magnetic configuration has the point symmetry C_1 .


 Subroutine INISYM returns: Found  1 space group operations
 (whereof  1 operations are pure point group operations),
 and found     1 'primitive' translations

 
 
 KPOINTS: Gamma points only                       
  k-points in reciprocal lattice
Space group operators:
 irot       det(A)        alpha          n_x          n_y          n_z        tau_x        tau_y        tau_z
    1     1.000000     0.000000     1.000000     0.000000     0.000000     0.000000     0.000000     0.000000


--------------------------------------------------------------------------------------------------------




 Dimension of arrays:
   k-points           NKPTS =      1   k-points in BZ     NKDIM =      1   number of bands    NBANDS=    432
   number of dos      NEDOS =    301   number of ions     NIONS =    114
   non local maximal  LDIM  =      6   non local SUM 2l+1 LMDIM =     18
   total plane-waves  NPLWV = 777600
   max r-space proj   IRMAX =   4725   max aug-charges    IRDMAX= 128081
   dimension x,y,z NGX =    90 NGY =   90 NGZ =   96
   dimension x,y,z NGXF=   180 NGYF=  180 NGZF=  192
   support grid    NGXF=   360 NGYF=  360 NGZF=  384
   ions per type =              74  33   3   3   1
   NGX,Y,Z   is equivalent  to a cutoff of  10.94, 10.94, 10.81 a.u.
   NGXF,Y,Z  is equivalent  to a cutoff of  21.88, 21.88, 21.62 a.u.

 SYSTEM =  zeolite                                 
 POSCAR =  O  C                                    

 Startparameter for this run:
   NWRITE =      2    write-flag & timer
   PREC   = acc       normal or accurate (medium, high low for compatibility)
   ISTART =      0    job   : 0-new  1-cont  2-samecut
   ICHARG =      2    charge: 1-file 2-atom 10-const
   ISPIN  =      2    spin polarized calculation?
   LNONCOLLINEAR =      F non collinear calculations
   LSORBIT =      F    spin-orbit coupling
   INIWAV =      1    electr: 0-lowe 1-rand  2-diag
   LASPH  =      F    aspherical Exc in radial PAW
   METAGGA=      F    non-selfconsistent MetaGGA calc.

 Electronic Relaxation 1
   ENCUT  =  400.0 eV  29.40 Ry    5.42 a.u.  22.30 22.30 24.08*2*pi/ulx,y,z
   ENINI  =  400.0     initial cutoff
   ENAUG  =  605.4 eV  augmentation charge cutoff
   NELM   =    100;   NELMIN=  2; NELMDL= -5     # of ELM steps 
   EDIFF  = 0.1E-07   stopping-criterion for ELM
   LREAL  =      T    real-space projection
   NLSPLINE    = F    spline interpolate recip. space projectors
   LCOMPAT=      F    compatible to vasp.4.4
   GGA_COMPAT  = T    GGA compatible to vasp.4.4-vasp.4.6
   LMAXPAW     = -100 max onsite density
   LMAXMIX     =    2 max onsite mixed and CHGCAR
   VOSKOWN=      0    Vosko Wilk Nusair interpolation
   ROPT   =   -0.00025  -0.00025  -0.00025  -0.00025
   ROPT   =   -0.00025
 Ionic relaxation
   EDIFFG = -.1E-07   stopping-criterion for IOM
   NSW    =     10    number of steps for IOM
   NBLOCK =      1;   KBLOCK =     10    inner block; outer block 
   IBRION =      3    ionic relax: 0-MD 1-quasi-New 2-CG
   NFREE  =      0    steps in history (QN), initial steepest desc. (CG)
   ISIF   =      2    stress and relaxation
   IWAVPR =     11    prediction:  0-non 1-charg 2-wave 3-comb
   ISYM   =      2    0-nonsym 1-usesym 2-fastsym
   LCORR  =      T    Harris-Foulkes like correction to forces

   POTIM  = 0.0000    time-step for ionic-motion
   TEIN   =    0.0    initial temperature
   TEBEG  =    0.0;   TEEND  =   0.0 temperature during run
   SMASS  =  -3.00    Nose mass-parameter (am)
   estimated Nose-frequenzy (Omega)   =  0.10E-29 period in steps =  0.00 mass=  -0.427E-26a.u.
   SCALEE = 1.0000    scale energy and forces
   NPACO  =    256;   APACO  = 16.0  distance and # of slots for P.C.
   PSTRESS=    0.0 pullay stress

  Mass of Ions in am
   POMASS =  16.00 28.09 26.98107.87 32.07
  Ionic Valenz
   ZVAL   =   6.00  4.00  3.00 11.00  6.00
  Atomic Wigner-Seitz radii
   RWIGS  =  -1.00 -1.00 -1.00 -1.00 -1.00
  virtual crystal weights 
   VCA    =   1.00  1.00  1.00  1.00  1.00
   NELECT =     624.0000    total number of electrons
   NUPDOWN=      -1.0000    fix difference up-down

 DOS related values:
   EMIN   =  10.00;   EMAX   =-10.00  energy-range for DOS
   EFERMI =   0.00
   ISMEAR =     0;   SIGMA  =   0.05  broadening in eV -4-tet -1-fermi 0-gaus

 Electronic relaxation 2 (details)
   IALGO  =     38    algorithm
   LDIAG  =      T    sub-space diagonalisation (order eigenvalues)
   LSUBROT=      F    optimize rotation matrix (better conditioning)
   TURBO    =      0    0=normal 1=particle mesh
   IRESTART =      0    0=no restart 2=restart with 2 vectors
   NREBOOT  =      0    no. of reboots
   NMIN     =      0    reboot dimension
   EREF     =   0.00    reference energy to select bands
   IMIX   =      4    mixing-type and parameters
     AMIX     =   0.40;   BMIX     =  1.00
     AMIX_MAG =   1.60;   BMIX_MAG =  1.00
     AMIN     =   0.10
     WC   =   100.;   INIMIX=   1;  MIXPRE=   1;  MAXMIX= -45

 Intra band minimization:
   WEIMIN = 0.0010     energy-eigenvalue tresh-hold
   EBREAK =  0.58E-12  absolut break condition
   DEPER  =   0.30     relativ break condition  

   TIME   =   0.40     timestep for ELM

  volume/ion in A,a.u.               =      20.98       141.57
  Fermi-wavevector in a.u.,A,eV,Ry     =   1.046110  1.976860 14.889470  1.094345
  Thomas-Fermi vector in A             =   2.180934
 
 Write flags
   LWAVE        =      F    write WAVECAR
   LDOWNSAMPLE  =      F    k-point downsampling of WAVECAR
   LCHARG       =      F    write CHGCAR
   LVTOT        =      F    write LOCPOT, total local potential
   LVHAR        =      F    write LOCPOT, Hartree potential only
   LELF         =      F    write electronic localiz. function (ELF)
   LORBIT       =     11    0 simple, 1 ext, 2 COOP (PROOUT), +10 PAW based schemes


 Dipole corrections
   LMONO  =      F    monopole corrections only (constant potential shift)
   LDIPOL =      F    correct potential (dipole corrections)
   IDIPOL =      0    1-x, 2-y, 3-z, 4-all directions 
   EPSILON=  1.0000000 bulk dielectric constant

 Exchange correlation treatment:
   GGA     =    --    GGA type
   LEXCH   =     8    internal setting for exchange type
   VOSKOWN=      0    Vosko Wilk Nusair interpolation
   LHFCALC =     F    Hartree Fock is set to
   LHFONE  =     F    Hartree Fock one center treatment
   AEXX    =    0.0000 exact exchange contribution

 Linear response parameters
   LEPSILON=     F    determine dielectric tensor
   LRPA    =     F    only Hartree local field effects (RPA)
   LNABLA  =     F    use nabla operator in PAW spheres
   LVEL    =     F    velocity operator in full k-point grid
   LINTERFAST=   F  fast interpolation
   KINTER  =     0    interpolate to denser k-point grid
   CSHIFT  =0.1000    complex shift for real part using Kramers Kronig
   OMEGAMAX=  -1.0    maximum frequency
   DEG_THRESHOLD= 0.2000000E-02 threshold for treating states as degnerate
   RTIME   =   -0.100 relaxation time in fs
  (WPLASMAI=    0.000 imaginary part of plasma frequency in eV, 0.658/RTIME)
   DFIELD  = 0.0000000 0.0000000 0.0000000 field for delta impulse in time
 
 Orbital magnetization related:
   ORBITALMAG=     F  switch on orbital magnetization
   LCHIMAG   =     F  perturbation theory with respect to B field
   DQ        =  0.001000  dq finite difference perturbation B field
   LLRAUG    =     F  two centre corrections for induced B field



--------------------------------------------------------------------------------------------------------


 quickmin algorithm: (dynamic with friction)
 charge density and potential will be updated during run
 spin polarized calculation
 Variant of blocked Davidson
 Davidson routine will perform the subspace rotation
 perform sub-space diagonalisation
    after iterative eigenvector-optimisation
 modified Broyden-mixing scheme, WC =      100.0
 initial mixing is a Kerker type mixing with AMIX =  0.4000 and BMIX =      1.0000
 Hartree-type preconditioning will be used
 using additional bands          120
 real space projection scheme for non local part
 use partial core corrections
 calculate Harris-corrections to forces 
   (improved forces if not selfconsistent)
 use gradient corrections 
 use of overlap-Matrix (Vanderbilt PP)
 Gauss-broadening in eV      SIGMA  =   0.05


--------------------------------------------------------------------------------------------------------


  energy-cutoff  :      400.00
  volume of cell :     2391.54
      direct lattice vectors                 reciprocal lattice vectors
    13.675000191  0.000000000  0.000000000     0.073126142  0.042219398  0.000000000
    -6.837500095 11.842897562  0.000000000     0.000000000  0.084438795  0.000000000
     0.000000000  0.000000000 14.767000198     0.000000000  0.000000000  0.067718561

  length of vectors
    13.675000191 13.675000191 14.767000198     0.084438795  0.084438795  0.067718561


 
 k-points in units of 2pi/SCALE and weight: Gamma points only                       
   0.00000000  0.00000000  0.00000000       1.000
 
 k-points in reciprocal lattice and weights: Gamma points only                       
   0.00000000  0.00000000  0.00000000       1.000
 
 position of ions in fractional coordinates (direct lattice) 
   0.89865615  0.09888784  0.11751506
   0.10718881  0.88837988  0.88206797
   0.89448426  0.79503518  0.12844003
   0.09558199  0.19825519  0.86603262
   0.19568153  0.10409634  0.11647444
   0.80246055  0.90482471  0.88123445
   0.55485181  0.42682929  0.45591480
   0.76420792  0.23421598  0.21967508
   0.56691412  0.14215253  0.47094141
   0.76671232  0.53987119  0.20689953
   0.86427187  0.42570954  0.46431046
   0.46544489  0.23720280  0.18317799
   0.23187445  0.77665760  0.77581860
   0.42436489  0.56985187  0.52470536
   0.23138758  0.44869878  0.77155414
   0.42934420  0.85203360  0.53062095
   0.53137351  0.75752186  0.80550534
   0.12523519  0.56060568  0.53262085
   0.97772204  0.31685804  0.16166888
   0.02177986  0.66950766  0.84120838
   0.67888291  0.67433031  0.17385575
   0.31359976  0.31692448  0.81915613
   0.31872480  0.01606708  0.17848079
   0.66438311  0.98137632  0.82662332
   0.32556866  0.98767238  0.83797528
   0.67768320  0.00478010  0.16251982
   0.67128452  0.67378427  0.81320806
   0.33250668  0.32400961  0.15769380
   0.01679762  0.33770764  0.83159716
   0.98775701  0.67137899  0.17414405
   0.64656120  0.64066372  0.50532113
   0.34296684  0.99390942  0.47458069
   0.99502534  0.33817767  0.49854566
   0.33704696  0.35061579  0.48154457
   0.98650051  0.64305331  0.50547021
   0.65043566  0.00802289  0.51495319
   0.11779003  0.24375834  0.12961608
   0.88803527  0.75179088  0.85489898
   0.76237014  0.87946815  0.11167841
   0.22721337  0.10808403  0.87033342
   0.11331525  0.88296621  0.12684459
   0.87572473  0.12426126  0.86089074
   0.77453387  0.55658918  0.46834973
   0.53623552  0.08755353  0.17487232
   0.41543998  0.21014622  0.46771899
   0.90203117  0.45384479  0.19542311
   0.78452118  0.20689677  0.45175966
   0.54680397  0.45709505  0.19603478
   0.44854689  0.89588492  0.80709204
   0.20934385  0.42693015  0.54304470
   0.12317984  0.55661481  0.80248751
   0.57924310  0.78799894  0.52017837
   0.44978093  0.53599541  0.80146174
   0.20268917  0.77701005  0.54503770
   0.99956097  0.26143946  0.99523481
   0.98990679  0.72764702  0.00316718
   0.73389718  0.71414474  0.99998520
   0.25577995  0.26562958  0.99175459
   0.27095306  0.00389336  0.00411055
   0.66177113  0.59061603  0.33507285
   0.63103408  0.04912692  0.34168120
   0.44162180  0.10973281  0.32498613
   0.91984901  0.58429797  0.33617007
   0.93957252  0.34844819  0.33061851
   0.40495402  0.32268180  0.32253252
   0.35854348  0.95081444  0.66667313
   0.35501939  0.41005174  0.65482856
   0.05715404  0.40892322  0.66569257
   0.57550436  0.89716704  0.66721020
   0.56661538  0.66021786  0.66171791
   0.05465793  0.63919834  0.67058868
   0.73088359  0.01150197  0.99414566
   0.75484122  0.44212375  0.68834741
   0.73961863  0.25512253  0.66923582
   0.99681699  0.22944387  0.10174708
   0.00174479  0.76130530  0.89671006
   0.76644550  0.76422592  0.10027678
   0.22246948  0.22196936  0.88789980
   0.22406442  0.00246863  0.10638475
   0.77055785  0.00160013  0.88963726
   0.23196069  0.99630800  0.89865910
   0.76917798  0.99882715  0.09908481
   0.22559376  0.23361619  0.09853823
   0.99722042  0.22846064  0.88976006
   0.99521131  0.76907657  0.10746146
   0.65927900  0.55300541  0.43911226
   0.44057157  0.11039461  0.43526211
   0.89300670  0.56146106  0.22822043
   0.89322396  0.32783076  0.43376838
   0.43815475  0.33482183  0.21573320
   0.89146309  0.33450678  0.22655694
   0.42851788  0.32622162  0.43038903
   0.44115866  0.11265702  0.21628433
   0.88634082  0.55156651  0.44129948
   0.66451750  0.56535618  0.22758832
   0.65645774  0.10077254  0.44180258
   0.34103756  0.90433217  0.76770796
   0.33194371  0.43713944  0.55247790
   0.10838829  0.43780846  0.76844634
   0.55839828  0.88910291  0.55816494
   0.55532197  0.65787217  0.77142723
   0.09354578  0.65955033  0.56412318
   0.55588436  0.66580967  0.55367271
   0.11061386  0.66373782  0.77200502
   0.09492415  0.43147530  0.56012713
   0.55460896  0.88259202  0.77507369
   0.33745829  0.42755961  0.76204990
   0.77307293  0.76670938  0.89175336
   0.65608907  0.09591973  0.23118476
   0.33221185  0.90012066  0.55629407
   0.56035756  0.02240390  0.03713179
   0.32024504  0.67254213  0.47907575
   0.78320238  0.60163331  0.75454143
   0.79746033  0.36512016  0.71022896
 
 position of ions in cartesian coordinates  (Angst):
  11.61297746  1.17111858  1.73534489
  -4.60849052 10.52099187 13.02549784
   6.79601923  9.41552025  1.89667399
  -0.04848622  2.34791591 12.78870384
   1.96418626  1.23280228  1.71997803
   4.78690917 10.71574631 13.01318934
   4.66915330  5.05489551  6.73249391
   8.84909167  2.77379585  3.24394197
   6.78058280  1.68349790  6.95439189
   6.79342176  6.39363921  3.05528536
   8.90812903  5.04163445  6.85647263
   4.74308475  2.80916846  2.70498948
  -2.13951332  9.19787645 11.45651343
   1.90682776  6.74869729  7.74832414
   0.09624723  5.31389374 11.39354010
   0.04550225 10.09054662  7.83567972
   2.08697703  8.97125378 11.89489747
  -2.12055013  6.63919561  7.86521227
  11.20383225  3.75251729  2.38736436
  -4.27991913  7.92891061 12.42212436
   4.67299032  7.98602480  2.56732790
   2.12150554  3.75330419 12.09647873
   4.24870311  0.19028077  2.63562579
   2.37527850 11.62233920 12.20674679
  -2.30105848 11.69690280 12.37438114
   9.23463403  0.05661021  2.39993025
   4.57281595  7.97955812 12.00864353
   2.33161309  3.83721266  2.32866438
  -2.07936856  3.99943701 12.28019542
   8.91702336  7.95107256  2.57158523
   4.46118633  7.58731483  7.46207728
  -2.10578419 11.77076740  7.00813319
  11.29468193  4.00500347  7.36202390
   2.21178179  4.15230692  7.11096874
   9.09351761  7.61561449  7.46427870
   8.83985126  0.09501429  7.60431383
  -0.05591904  2.88680508  1.91404062
   7.00351233  8.90338234 12.62429348
   4.41204833 10.41545116  1.64915504
   2.36811826  1.28002813 12.85221380
  -4.48769548 10.45687837  1.87311403
  11.12589948  1.47161338 12.71277377
   6.78607230  6.59162859  6.91612053
   6.73437352  1.03688746  2.58233963
   4.24426699  2.48874015  6.90680649
   9.23211263  5.37483740  2.88581304
   9.31367058  2.45025724  6.67113492
   4.35215702  5.41332982  2.89484563
   0.00826563 10.60987334 11.91832835
  -0.05635781  5.05609006  8.01914122
  -2.12136952  6.59193217 11.85033326
   2.53320668  9.33219073  7.68147406
   2.48588560  6.34773876 11.83518565
  -2.54103192  9.20205045  8.04857178
  11.88140403  3.09620078 14.69663263
   8.56168902  8.61744908  0.04676977
   5.15307928  8.45754304 14.76678167
   1.68154856  3.14582391 14.64524027
   3.67866222  0.04610868  0.06070043
   5.01138309  6.99460519  4.94802084
   8.29348578  0.58180509  5.04560635
   5.28888006  1.29955446  4.79907018
   8.58379798  6.91978102  4.96422347
  10.46613988  4.12663619  4.88224360
   3.33140952  3.82148748  4.76283775
  -1.59811168 11.26039804  9.84476219
   2.05116148  4.85620074  9.66985344
  -2.01443101  4.84283585  9.83028231
   1.73564247 10.62505737  9.85269312
   3.23422572  7.81889244  9.77158850
  -3.62307154  7.56996045  9.90258319
   9.91618855  0.13621663 14.68054919
   7.29943264  5.23602623 10.16482627
   8.36988460  3.02138995  9.88260551
  12.06265006  2.71728021  1.50249910
  -5.18156513  9.01606074 13.24171766
   5.25574759  9.05064930  1.48078716
   1.52455465  2.62876034 13.11161656
   3.04720177  0.02923576  1.57098365
  10.52643786  0.01895019 13.13727363
  -3.64019356 11.79917361 13.27049910
   3.68902835 11.82900763  1.46318534
   1.48764394  2.76669259  1.45511412
  12.07488978  2.70563601 13.13908695
   8.35095373  9.10809499  1.58688337
   5.23446588  6.54918647  6.48437084
   5.26999319  1.30739204  6.42751561
   8.37287677  6.64932579  3.37013111
   9.97329499  3.88246606  6.40545781
   3.70242193  3.96526064  3.18573214
   9.90356787  3.96152948  3.34556641
   3.62944168  3.86340924  6.35555496
   5.26255241  1.33418558  3.19387076
   8.34937486  6.53214572  6.51666949
   5.22165408  6.69545529  3.36079683
   8.28802749  1.19343886  6.52409876
  -1.51968256 10.70991320 11.33674367
   1.55038939  5.17699760  8.15844128
  -1.51130549  5.18492079 11.34764719
   1.55685540 10.52955471  8.24242172
   3.09582697  7.79111274 11.39166610
  -3.23043688  7.81098700  8.33040711
   3.04924505  7.88511573  8.17608499
  -3.02566285  7.86057896 11.40019836
  -1.65212465  5.10991782  8.27139749
   1.54955462 10.45244683 11.44551339
   1.69130340  5.06354462 11.25319100
   5.32939704  9.08006061 13.16852205
   8.31616694  1.13596757  3.41390544
  -1.61157791 10.66003671  8.21479463
   7.50970307  0.26532707  0.54832520
  -0.21915583  7.96484752  7.07451166
   6.59662492  7.12508160 11.14231350
   8.40876101  4.32408067 10.48795126
 


--------------------------------------------------------------------------------------------------------


 k-point  1 :   0.0000 0.0000 0.0000  plane waves:   43405

 maximum and minimum number of plane-waves per node :     10852    10850

 maximum number of plane-waves:     43405
 maximum index in each direction: 
   IXMAX=   22   IYMAX=   22   IZMAX=   24
   IXMIN=  -22   IYMIN=  -22   IZMIN=  -24


 real space projection operators:
  total allocation   :      30795.41 KBytes
  max/ min on nodes  :       7865.69       7526.94


 parallel 3D FFT for wavefunctions:
    minimum data exchange during FFTs selected (reduces bandwidth)
 parallel 3D FFT for charge:
    minimum data exchange during FFTs selected (reduces bandwidth)


 total amount of memory used by VASP MPI-rank0   211564. kBytes
=======================================================================

   base      :      30000. kBytes
   nonlr-proj:      18847. kBytes
   fftplans  :      63994. kBytes
   grid      :      59474. kBytes
   one-center:        902. kBytes
   wavefun   :      38347. kBytes
 
     INWAV:  cpu time    0.0000: real time    0.0000
 Broyden mixing: mesh for mixing (old mesh)
   NGX = 45   NGY = 45   NGZ = 49
  (NGX  =180   NGY  =180   NGZ  =192)
  gives a total of  99225 points

 initial charge density was supplied:
 charge density of overlapping atoms calculated
 number of electron     624.0000000 magnetization     114.0000000
 keeping initial charge density in first step


--------------------------------------------------------------------------------------------------------


 Maximum index for non-local projection operator         1316
 Maximum index for augmentation-charges         7875 (set IRDMAX)


--------------------------------------------------------------------------------------------------------


 First call to EWALD:  gamma=   0.133
 Maximum number of real-space cells 3x 3x 3
 Maximum number of reciprocal cells 3x 3x 3

    FEWALD:  cpu time    0.0213: real time    0.0213


--------------------------------------- Iteration      1(   1)  ---------------------------------------


    POTLOK:  cpu time    0.7608: real time    0.7952
    SETDIJ:  cpu time    0.9138: real time    0.9160
     EDDAV:  cpu time   24.0307: real time   24.0903
       DOS:  cpu time    0.0006: real time    0.0006
    --------------------------------------------
      LOOP:  cpu time   25.7060: real time   25.8022

 eigenvalue-minimisations  :  1800
 total energy-change (2. order) : 0.4414675E+04  (-0.2608402E+05)
 number of electron     624.0000000 magnetization     114.0000000
 augmentation part      624.0000000 magnetization     114.0000000

 Free energy of the ion-electron system (eV)
  ---------------------------------------------------
  alpha Z        PSCENC =       651.60147728
  Ewald energy   TEWEN  =     -6826.32923361
  -Hartree energ DENC   =    -28701.68428404
  -exchange      EXHF   =         0.00000000
  -V(xc)+E(xc)   XCENC  =      1687.72180346
  PAW double counting   =     22097.86014188   -21415.35477417
  entropy T*S    EENTRO =        -0.01596790
  eigenvalues    EBANDS =     -2017.41659804
  atomic energy  EATOM  =     38938.29198303
  Solvation  Ediel_sol  =         0.00000000
  ---------------------------------------------------
  free energy    TOTEN  =      4414.67454789 eV

  energy without entropy =     4414.69051579  energy(sigma->0) =     4414.68253184


--------------------------------------------------------------------------------------------------------




--------------------------------------- Iteration      1(   2)  ---------------------------------------


     EDDAV:  cpu time   27.3417: real time   27.4212
       DOS:  cpu time    0.0003: real time    0.0003
    --------------------------------------------
      LOOP:  cpu time   27.3420: real time   27.4215

 eigenvalue-minimisations  :  2128
 total energy-change (2. order) :-0.4839323E+04  (-0.4660273E+04)
 number of electron     624.0000000 magnetization     114.0000000
 augmentation part      624.0000000 magnetization     114.0000000

 Free energy of the ion-electron system (eV)
  ---------------------------------------------------
  alpha Z        PSCENC =       651.60147728
  Ewald energy   TEWEN  =     -6826.32923361
  -Hartree energ DENC   =    -28701.68428404
  -exchange      EXHF   =         0.00000000
  -V(xc)+E(xc)   XCENC  =      1687.72180346
  PAW double counting   =     22097.86014188   -21415.35477417
  entropy T*S    EENTRO =        -0.00000000
  eigenvalues    EBANDS =     -6856.75513718
  atomic energy  EATOM  =     38938.29198303
  Solvation  Ediel_sol  =         0.00000000
  ---------------------------------------------------
  free energy    TOTEN  =      -424.64802335 eV

  energy without entropy =     -424.64802335  energy(sigma->0) =     -424.64802335


--------------------------------------------------------------------------------------------------------




--------------------------------------- Iteration      1(   3)  ---------------------------------------


     EDDAV:  cpu time   26.7532: real time   26.8216
       DOS:  cpu time    0.0003: real time    0.0003
    --------------------------------------------
      LOOP:  cpu time   26.7535: real time   26.8220

 eigenvalue-minimisations  :  2088
 total energy-change (2. order) :-0.5193511E+03  (-0.5157619E+03)
 number of electron     624.0000000 magnetization     114.0000000
 augmentation part      624.0000000 magnetization     114.0000000

 Free energy of the ion-electron system (eV)
  ---------------------------------------------------
  alpha Z        PSCENC =       651.60147728
  Ewald energy   TEWEN  =     -6826.32923361
  -Hartree energ DENC   =    -28701.68428404
  -exchange      EXHF   =         0.00000000
  -V(xc)+E(xc)   XCENC  =      1687.72180346
  PAW double counting   =     22097.86014188   -21415.35477417
  entropy T*S    EENTRO =        -0.00000000
  eigenvalues    EBANDS =     -7376.10620305
  atomic energy  EATOM  =     38938.29198303
  Solvation  Ediel_sol  =         0.00000000
  ---------------------------------------------------
  free energy    TOTEN  =      -943.99908922 eV

  energy without entropy =     -943.99908922  energy(sigma->0) =     -943.99908922


--------------------------------------------------------------------------------------------------------




--------------------------------------- Iteration      1(   4)  ---------------------------------------


     EDDAV:  cpu time   27.4416: real time   27.5167
       DOS:  cpu time    0.0003: real time    0.0003
    --------------------------------------------
      LOOP:  cpu time   27.4419: real time   27.5171

 eigenvalue-minimisations  :  2160
 total energy-change (2. order) :-0.1049464E+02  (-0.1045366E+02)
 number of electron     624.0000000 magnetization     114.0000000
 augmentation part      624.0000000 magnetization     114.0000000

 Free energy of the ion-electron system (eV)
  ---------------------------------------------------
  alpha Z        PSCENC =       651.60147728
  Ewald energy   TEWEN  =     -6826.32923361
  -Hartree energ DENC   =    -28701.68428404
  -exchange      EXHF   =         0.00000000
  -V(xc)+E(xc)   XCENC  =      1687.72180346
  PAW double counting   =     22097.86014188   -21415.35477417
  entropy T*S    EENTRO =        -0.00000000
  eigenvalues    EBANDS =     -7386.60084162
  atomic energy  EATOM  =     38938.29198303
  Solvation  Ediel_sol  =         0.00000000
  ---------------------------------------------------
  free energy    TOTEN  =      -954.49372779 eV

  energy without entropy =     -954.49372779  energy(sigma->0) =     -954.49372779


--------------------------------------------------------------------------------------------------------




--------------------------------------- Iteration      1(   5)  ---------------------------------------


     EDDAV:  cpu time   27.2041: real time   27.2733
       DOS:  cpu time    0.0003: real time    0.0003
    CHARGE:  cpu time    2.1850: real time    2.1903
    MIXING:  cpu time    0.0168: real time    0.0169
    --------------------------------------------
      LOOP:  cpu time   29.4063: real time   29.4808

 eigenvalue-minimisations  :  2136
 total energy-change (2. order) :-0.2716507E+00  (-0.2712907E+00)
 number of electron     624.0000005 magnetization      86.0401199
 augmentation part       70.4073537 magnetization      87.2495766

 Broyden mixing:
  rms(total) = 0.87182E+01    rms(broyden)= 0.87139E+01
  rms(prec ) = 0.95288E+01
  weight for this iteration     100.00

 Free energy of the ion-electron system (eV)
  ---------------------------------------------------
  alpha Z        PSCENC =       651.60147728
  Ewald energy   TEWEN  =     -6826.32923361
  -Hartree energ DENC   =    -28701.68428404
  -exchange      EXHF   =         0.00000000
  -V(xc)+E(xc)   XCENC  =      1687.72180346
  PAW double counting   =     22097.86014188   -21415.35477417
  entropy T*S    EENTRO =        -0.00000000
  eigenvalues    EBANDS =     -7386.87249230
  atomic energy  EATOM  =     38938.29198303
  Solvation  Ediel_sol  =         0.00000000
  ---------------------------------------------------
  free energy    TOTEN  =      -954.76537847 eV

  energy without entropy =     -954.76537847  energy(sigma->0) =     -954.76537847


--------------------------------------------------------------------------------------------------------




--------------------------------------- Iteration      1(   6)  ---------------------------------------


    POTLOK:  cpu time    0.7600: real time    0.7724
    SETDIJ:  cpu time    0.9485: real time    0.9508
     EDDAV:  cpu time   25.9094: real time   25.9769
       DOS:  cpu time    0.0003: real time    0.0003
    CHARGE:  cpu time    2.2173: real time    2.2227
    MIXING:  cpu time    0.0181: real time    0.0182
    --------------------------------------------
      LOOP:  cpu time   29.8537: real time   29.9413

 eigenvalue-minimisations  :  2008
 total energy-change (2. order) : 0.3536726E+03  (-0.7221785E+02)
 number of electron     624.0000004 magnetization      63.2965755
 augmentation part       62.1573147 magnetization      59.2861319

 Broyden mixing:
  rms(total) = 0.28083E+01    rms(broyden)= 0.28046E+01
  rms(prec ) = 0.30378E+01
  weight for this iteration     100.00

 eigenvalues of (default mixing * dielectric matrix)
  average eigenvalue GAMMA=   1.0016
  1.0016

 Free energy of the ion-electron system (eV)
  ---------------------------------------------------
  alpha Z        PSCENC =       651.60147728
  Ewald energy   TEWEN  =     -6826.32923361
  -Hartree energ DENC   =    -30102.79127762
  -exchange      EXHF   =         0.00000000
  -V(xc)+E(xc)   XCENC  =      1942.37528367
  PAW double counting   =     25896.26562911   -25236.95966365
  entropy T*S    EENTRO =        -0.00000000
  eigenvalues    EBANDS =     -5863.54702294
  atomic energy  EATOM  =     38938.29198303
  Solvation  Ediel_sol  =         0.00000000
  ---------------------------------------------------
  free energy    TOTEN  =      -601.09282473 eV

  energy without entropy =     -601.09282473  energy(sigma->0) =     -601.09282473


--------------------------------------------------------------------------------------------------------




--------------------------------------- Iteration      1(   7)  ---------------------------------------


    POTLOK:  cpu time    0.7546: real time    0.7567
    SETDIJ:  cpu time    0.9165: real time    0.9187
     EDDAV:  cpu time   26.6279: real time   26.6958
       DOS:  cpu time    0.0003: real time    0.0003
    CHARGE:  cpu time    2.1756: real time    2.1808
    MIXING:  cpu time    0.0183: real time    0.0183
    --------------------------------------------
      LOOP:  cpu time   30.4933: real time   30.5707

 eigenvalue-minimisations  :  2080
 total energy-change (2. order) :-0.8894949E+02  (-0.8321525E+01)
 number of electron     624.0000004 magnetization      41.9387434
 augmentation part       59.5614688 magnetization      38.3582215

 Broyden mixing:
  rms(total) = 0.19289E+01    rms(broyden)= 0.19283E+01
  rms(prec ) = 0.20283E+01
  weight for this iteration     100.00

 eigenvalues of (default mixing * dielectric matrix)
  average eigenvalue GAMMA=   1.0510
  1.0510  1.0510

 Free energy of the ion-electron system (eV)
  ---------------------------------------------------
  alpha Z        PSCENC =       651.60147728
  Ewald energy   TEWEN  =     -6826.32923361
  -Hartree energ DENC   =    -30534.74748055
  -exchange      EXHF   =         0.00000000
  -V(xc)+E(xc)   XCENC  =      1903.81087121
  PAW double counting   =     27284.40950433   -26627.56146027
  entropy T*S    EENTRO =        -0.00000000
  eigenvalues    EBANDS =     -5479.51797377
  atomic energy  EATOM  =     38938.29198303
  Solvation  Ediel_sol  =         0.00000000
  ---------------------------------------------------
  free energy    TOTEN  =      -690.04231234 eV

  energy without entropy =     -690.04231234  energy(sigma->0) =     -690.04231234


--------------------------------------------------------------------------------------------------------




--------------------------------------- Iteration      1(   8)  ---------------------------------------


    POTLOK:  cpu time    0.7752: real time    0.7853
    SETDIJ:  cpu time    0.8866: real time    0.8888
     EDDAV:  cpu time   26.1703: real time   26.2348
       DOS:  cpu time    0.0003: real time    0.0003
    CHARGE:  cpu time    2.1799: real time    2.1852
    MIXING:  cpu time    0.0228: real time    0.0229
    --------------------------------------------
      LOOP:  cpu time   30.0352: real time   30.1173

 eigenvalue-minimisations  :  2032
 total energy-change (2. order) :-0.7133543E+02  (-0.3134989E+01)
 number of electron     624.0000004 magnetization      18.9569045
 augmentation part       59.8716102 magnetization      16.3873478

 Broyden mixing:
  rms(total) = 0.10944E+01    rms(broyden)= 0.10942E+01
  rms(prec ) = 0.11399E+01
  weight for this iteration     100.00

 eigenvalues of (default mixing * dielectric matrix)
  average eigenvalue GAMMA=   1.3875
  2.2600  1.1840  0.7185

 Free energy of the ion-electron system (eV)
  ---------------------------------------------------
  alpha Z        PSCENC =       651.60147728
  Ewald energy   TEWEN  =     -6826.32923361
  -Hartree energ DENC   =    -30609.59957288
  -exchange      EXHF   =         0.00000000
  -V(xc)+E(xc)   XCENC  =      1855.95717401
  PAW double counting   =     27705.48864964   -27046.78918552
  entropy T*S    EENTRO =        -0.00000000
  eigenvalues    EBANDS =     -5429.99903358
  atomic energy  EATOM  =     38938.29198303
  Solvation  Ediel_sol  =         0.00000000
  ---------------------------------------------------
  free energy    TOTEN  =      -761.37774163 eV

  energy without entropy =     -761.37774163  energy(sigma->0) =     -761.37774163


--------------------------------------------------------------------------------------------------------




--------------------------------------- Iteration      1(   9)  ---------------------------------------


    POTLOK:  cpu time    0.8086: real time    0.8193
    SETDIJ:  cpu time    0.8955: real time    0.8976
     EDDAV:  cpu time   26.1834: real time   26.2561
       DOS:  cpu time    0.0003: real time    0.0003
    CHARGE:  cpu time    2.1541: real time    2.1594
    MIXING:  cpu time    0.0646: real time    0.0648
    --------------------------------------------
      LOOP:  cpu time   30.1065: real time   30.1975

 eigenvalue-minimisations  :  2040
 total energy-change (2. order) :-0.7646226E+02  (-0.5726275E+01)
 number of electron     624.0000004 magnetization      13.3853364
 augmentation part       59.7431476 magnetization      12.0767171

 Broyden mixing:
  rms(total) = 0.48932E+00    rms(broyden)= 0.48861E+00
  rms(prec ) = 0.51357E+00
  weight for this iteration     100.00

 eigenvalues of (default mixing * dielectric matrix)
  average eigenvalue GAMMA=   1.2910
  2.4514  1.2410  0.7418  0.7297

 Free energy of the ion-electron system (eV)
  ---------------------------------------------------
  alpha Z        PSCENC =       651.60147728
  Ewald energy   TEWEN  =     -6826.32923361
  -Hartree energ DENC   =    -30725.62762627
  -exchange      EXHF   =         0.00000000
  -V(xc)+E(xc)   XCENC  =      1810.35652812
  PAW double counting   =     28135.08490574   -27475.65241872
  entropy T*S    EENTRO =        -0.00000000
  eigenvalues    EBANDS =     -5345.56561599
  atomic energy  EATOM  =     38938.29198303
  Solvation  Ediel_sol  =         0.00000000
  ---------------------------------------------------
  free energy    TOTEN  =      -837.84000041 eV

  energy without entropy =     -837.84000041  energy(sigma->0) =     -837.84000041


--------------------------------------------------------------------------------------------------------




--------------------------------------- Iteration      1(  10)  ---------------------------------------


    POTLOK:  cpu time    0.7565: real time    0.7784
    SETDIJ:  cpu time    0.8934: real time    0.8956
     EDDAV:  cpu time   27.0010: real time   27.0679
       DOS:  cpu time    0.0003: real time    0.0003
    CHARGE:  cpu time    2.1707: real time    2.1761
    MIXING:  cpu time    0.0197: real time    0.0198
    --------------------------------------------
      LOOP:  cpu time   30.8416: real time   30.9380

 eigenvalue-minimisations  :  2128
 total energy-change (2. order) :-0.1414344E+02  (-0.8514772E+00)
 number of electron     624.0000004 magnetization       5.2016660
 augmentation part       59.3819491 magnetization       4.4102190

 Broyden mixing:
  rms(total) = 0.35127E+00    rms(broyden)= 0.35080E+00
  rms(prec ) = 0.37426E+00
  weight for this iteration     100.00

 eigenvalues of (default mixing * dielectric matrix)
  average eigenvalue GAMMA=   1.4515
  2.7411  1.9648  0.9503  0.9503  0.6510

 Free energy of the ion-electron system (eV)
  ---------------------------------------------------
  alpha Z        PSCENC =       651.60147728
  Ewald energy   TEWEN  =     -6826.32923361
  -Hartree energ DENC   =    -30735.48939925
  -exchange      EXHF   =         0.00000000
  -V(xc)+E(xc)   XCENC  =      1802.80304701
  PAW double counting   =     28121.09866482   -27461.84737758
  entropy T*S    EENTRO =        -0.00000000
  eigenvalues    EBANDS =     -5342.11260149
  atomic energy  EATOM  =     38938.29198303
  Solvation  Ediel_sol  =         0.00000000
  ---------------------------------------------------
  free energy    TOTEN  =      -851.98343978 eV

  energy without entropy =     -851.98343978  energy(sigma->0) =     -851.98343978


--------------------------------------------------------------------------------------------------------




--------------------------------------- Iteration      1(  11)  ---------------------------------------


    POTLOK:  cpu time    0.7543: real time    0.7635
    SETDIJ:  cpu time    0.9115: real time    0.9137
     EDDAV:  cpu time   24.7336: real time   24.7947
       DOS:  cpu time    0.0003: real time    0.0003
    CHARGE:  cpu time    2.1560: real time    2.1612
    MIXING:  cpu time    0.0206: real time    0.0206
    --------------------------------------------
      LOOP:  cpu time   28.5763: real time   28.6541

 eigenvalue-minimisations  :  1904
 total energy-change (2. order) :-0.1598388E+02  (-0.1078273E+01)
 number of electron     624.0000004 magnetization       2.5624201
 augmentation part       59.4131403 magnetization       2.3093927

 Broyden mixing:
  rms(total) = 0.16817E+00    rms(broyden)= 0.16772E+00
  rms(prec ) = 0.18089E+00
  weight for this iteration     100.00

 eigenvalues of (default mixing * dielectric matrix)
  average eigenvalue GAMMA=   1.4242
  3.2146  1.9696  1.1601  0.7796  0.7796  0.6419

 Free energy of the ion-electron system (eV)
  ---------------------------------------------------
  alpha Z        PSCENC =       651.60147728
  Ewald energy   TEWEN  =     -6826.32923361
  -Hartree energ DENC   =    -30676.72674215
  -exchange      EXHF   =         0.00000000
  -V(xc)+E(xc)   XCENC  =      1788.89881559
  PAW double counting   =     27916.12948488   -27256.14801938
  entropy T*S    EENTRO =        -0.00000000
  eigenvalues    EBANDS =     -5403.68508553
  atomic energy  EATOM  =     38938.29198303
  Solvation  Ediel_sol  =         0.00000000
  ---------------------------------------------------
  free energy    TOTEN  =      -867.96731989 eV

  energy without entropy =     -867.96731989  energy(sigma->0) =     -867.96731989


--------------------------------------------------------------------------------------------------------




--------------------------------------- Iteration      1(  12)  ---------------------------------------


    POTLOK:  cpu time    0.7872: real time    0.7893
    SETDIJ:  cpu time    0.9120: real time    0.9142
     EDDAV:  cpu time   25.3655: real time   25.4282
       DOS:  cpu time    0.0003: real time    0.0003
    CHARGE:  cpu time    2.1479: real time    2.1532
    MIXING:  cpu time    0.0218: real time    0.0219
    --------------------------------------------
      LOOP:  cpu time   29.2348: real time   29.3071

 eigenvalue-minimisations  :  1968
 total energy-change (2. order) :-0.2419588E+01  (-0.1325087E+00)
 number of electron     624.0000004 magnetization       0.8815893
 augmentation part       59.3255554 magnetization       0.7488592

 Broyden mixing:
  rms(total) = 0.90962E-01    rms(broyden)= 0.90830E-01
  rms(prec ) = 0.10623E+00
  weight for this iteration     100.00

 eigenvalues of (default mixing * dielectric matrix)
  average eigenvalue GAMMA=   1.4986
  3.7098  2.2815  1.3114  0.9399  0.9399  0.6812  0.6263

 Free energy of the ion-electron system (eV)
  ---------------------------------------------------
  alpha Z        PSCENC =       651.60147728
  Ewald energy   TEWEN  =     -6826.32923361
  -Hartree energ DENC   =    -30665.60685216
  -exchange      EXHF   =         0.00000000
  -V(xc)+E(xc)   XCENC  =      1786.99518997
  PAW double counting   =     27902.14097338   -27242.27822775
  entropy T*S    EENTRO =        -0.00000000
  eigenvalues    EBANDS =     -5415.20221777
  atomic energy  EATOM  =     38938.29198303
  Solvation  Ediel_sol  =         0.00000000
  ---------------------------------------------------
  free energy    TOTEN  =      -870.38690763 eV

  energy without entropy =     -870.38690763  energy(sigma->0) =     -870.38690763


--------------------------------------------------------------------------------------------------------




--------------------------------------- Iteration      1(  13)  ---------------------------------------


    POTLOK:  cpu time    0.7561: real time    0.7704
    SETDIJ:  cpu time    0.8977: real time    0.8999
     EDDAV:  cpu time   24.6636: real time   24.7273
       DOS:  cpu time    0.0003: real time    0.0003
    CHARGE:  cpu time    2.1503: real time    2.1587
    MIXING:  cpu time    0.0213: real time    0.0213
    --------------------------------------------
      LOOP:  cpu time   28.4894: real time   28.5780

 eigenvalue-minimisations  :  1904
 total energy-change (2. order) :-0.1079008E+01  (-0.4571537E-01)
 number of electron     624.0000004 magnetization       0.3606823
 augmentation part       59.3593360 magnetization       0.3088345

 Broyden mixing:
  rms(total) = 0.40399E-01    rms(broyden)= 0.40314E-01
  rms(prec ) = 0.51361E-01
  weight for this iteration     100.00

 eigenvalues of (default mixing * dielectric matrix)
  average eigenvalue GAMMA=   1.4724
  3.8815  2.3528  1.3353  1.0892  0.9101  0.9101  0.6691  0.6314

 Free energy of the ion-electron system (eV)
  ---------------------------------------------------
  alpha Z        PSCENC =       651.60147728
  Ewald energy   TEWEN  =     -6826.32923361
  -Hartree energ DENC   =    -30642.11648345
  -exchange      EXHF   =         0.00000000
  -V(xc)+E(xc)   XCENC  =      1785.03873823
  PAW double counting   =     27867.41923770   -27207.55217436
  entropy T*S    EENTRO =        -0.00000000
  eigenvalues    EBANDS =     -5437.81946053
  atomic energy  EATOM  =     38938.29198303
  Solvation  Ediel_sol  =         0.00000000
  ---------------------------------------------------
  free energy    TOTEN  =      -871.46591570 eV

  energy without entropy =     -871.46591570  energy(sigma->0) =     -871.46591570


--------------------------------------------------------------------------------------------------------




--------------------------------------- Iteration      1(  14)  ---------------------------------------


    POTLOK:  cpu time    0.7543: real time    0.7564
    SETDIJ:  cpu time    0.9130: real time    0.9152
     EDDAV:  cpu time   25.2196: real time   25.2815
       DOS:  cpu time    0.0003: real time    0.0003
    CHARGE:  cpu time    2.1511: real time    2.1563
    MIXING:  cpu time    0.0226: real time    0.0227
    --------------------------------------------
      LOOP:  cpu time   29.0610: real time   29.1324

 eigenvalue-minimisations  :  1952
 total energy-change (2. order) :-0.1458317E+00  (-0.5921143E-02)
 number of electron     624.0000004 magnetization       0.1237614
 augmentation part       59.3623918 magnetization       0.1068798

 Broyden mixing:
  rms(total) = 0.23693E-01    rms(broyden)= 0.23665E-01
  rms(prec ) = 0.31849E-01
  weight for this iteration     100.00

 eigenvalues of (default mixing * dielectric matrix)
  average eigenvalue GAMMA=   1.4641
  3.9506  2.3340  1.6425  1.0844  1.0844  0.9095  0.8730  0.6624  0.6357

 Free energy of the ion-electron system (eV)
  ---------------------------------------------------
  alpha Z        PSCENC =       651.60147728
  Ewald energy   TEWEN  =     -6826.32923361
  -Hartree energ DENC   =    -30632.07380738
  -exchange      EXHF   =         0.00000000
  -V(xc)+E(xc)   XCENC  =      1784.50845270
  PAW double counting   =     27865.43077735   -27205.59794690
  entropy T*S    EENTRO =        -0.00000000
  eigenvalues    EBANDS =     -5447.44344988
  atomic energy  EATOM  =     38938.29198303
  Solvation  Ediel_sol  =         0.00000000
  ---------------------------------------------------
  free energy    TOTEN  =      -871.61174741 eV

  energy without entropy =     -871.61174741  energy(sigma->0) =     -871.61174741


--------------------------------------------------------------------------------------------------------




--------------------------------------- Iteration      1(  15)  ---------------------------------------


    POTLOK:  cpu time    0.7523: real time    0.7635
    SETDIJ:  cpu time    0.9073: real time    0.9135
     EDDAV:  cpu time   25.8519: real time   25.9155
       DOS:  cpu time    0.0003: real time    0.0003
    CHARGE:  cpu time    2.1494: real time    2.1546
    MIXING:  cpu time    0.0227: real time    0.0228
    --------------------------------------------
      LOOP:  cpu time   29.6839: real time   29.7702

 eigenvalue-minimisations  :  2016
 total energy-change (2. order) :-0.1387698E-01  (-0.1241680E-02)
 number of electron     624.0000004 magnetization       0.0484913
 augmentation part       59.3584718 magnetization       0.0422923

 Broyden mixing:
  rms(total) = 0.12449E-01    rms(broyden)= 0.12432E-01
  rms(prec ) = 0.16906E-01
  weight for this iteration     100.00

 eigenvalues of (default mixing * dielectric matrix)
  average eigenvalue GAMMA=   1.4859
  4.0057  2.3751  2.3751  1.1382  1.1382  0.8995  0.8995  0.7459  0.6525  0.6289

 Free energy of the ion-electron system (eV)
  ---------------------------------------------------
  alpha Z        PSCENC =       651.60147728
  Ewald energy   TEWEN  =     -6826.32923361
  -Hartree energ DENC   =    -30625.91104480
  -exchange      EXHF   =         0.00000000
  -V(xc)+E(xc)   XCENC  =      1784.31979506
  PAW double counting   =     27876.11694128   -27216.32264754
  entropy T*S    EENTRO =        -0.00000000
  eigenvalues    EBANDS =     -5453.39289508
  atomic energy  EATOM  =     38938.29198303
  Solvation  Ediel_sol  =         0.00000000
  ---------------------------------------------------
  free energy    TOTEN  =      -871.62562438 eV

  energy without entropy =     -871.62562438  energy(sigma->0) =     -871.62562438


--------------------------------------------------------------------------------------------------------




--------------------------------------- Iteration      1(  16)  ---------------------------------------


    POTLOK:  cpu time    0.7552: real time    0.7592
    SETDIJ:  cpu time    0.9121: real time    0.9143
     EDDAV:  cpu time   26.3363: real time   26.4052
       DOS:  cpu time    0.0003: real time    0.0003
    CHARGE:  cpu time    2.1625: real time    2.1678
    MIXING:  cpu time    0.0242: real time    0.0243
    --------------------------------------------
      LOOP:  cpu time   30.1907: real time   30.2710

 eigenvalue-minimisations  :  2064
 total energy-change (2. order) :-0.4479045E-02  (-0.4086470E-03)
 number of electron     624.0000004 magnetization       0.0265744
 augmentation part       59.3579848 magnetization       0.0240479

 Broyden mixing:
  rms(total) = 0.84827E-02    rms(broyden)= 0.84797E-02
  rms(prec ) = 0.11316E-01
  weight for this iteration     100.00

 eigenvalues of (default mixing * dielectric matrix)
  average eigenvalue GAMMA=   1.4537
  4.0121  2.4490  2.4490  1.2203  0.9841  0.9841  0.9571  0.9571  0.7037  0.6472
  0.6274

 Free energy of the ion-electron system (eV)
  ---------------------------------------------------
  alpha Z        PSCENC =       651.60147728
  Ewald energy   TEWEN  =     -6826.32923361
  -Hartree energ DENC   =    -30622.49130563
  -exchange      EXHF   =         0.00000000
  -V(xc)+E(xc)   XCENC  =      1784.21104457
  PAW double counting   =     27880.42375796   -27220.64035842
  entropy T*S    EENTRO =        -0.00000000
  eigenvalues    EBANDS =     -5456.69746860
  atomic energy  EATOM  =     38938.29198303
  Solvation  Ediel_sol  =         0.00000000
  ---------------------------------------------------
  free energy    TOTEN  =      -871.63010343 eV

  energy without entropy =     -871.63010343  energy(sigma->0) =     -871.63010343


--------------------------------------------------------------------------------------------------------




--------------------------------------- Iteration      1(  17)  ---------------------------------------


    POTLOK:  cpu time    0.7547: real time    0.7640
    SETDIJ:  cpu time    0.8968: real time    0.8990
     EDDAV:  cpu time   26.2045: real time   26.2713
       DOS:  cpu time    0.0003: real time    0.0003
    CHARGE:  cpu time    2.1625: real time    2.1677
    MIXING:  cpu time    0.0259: real time    0.0259
    --------------------------------------------
      LOOP:  cpu time   30.0448: real time   30.1283

 eigenvalue-minimisations  :  2056
 total energy-change (2. order) :-0.5117587E-02  (-0.2193750E-03)
 number of electron     624.0000004 magnetization       0.0082548
 augmentation part       59.3610500 magnetization       0.0075753

 Broyden mixing:
  rms(total) = 0.43269E-02    rms(broyden)= 0.43187E-02
  rms(prec ) = 0.65045E-02
  weight for this iteration     100.00

 eigenvalues of (default mixing * dielectric matrix)
  average eigenvalue GAMMA=   1.4815
  4.0225  2.7039  2.7039  1.3707  1.0939  1.0939  0.9830  0.9830  0.8653  0.6894
  0.6197  0.6489

 Free energy of the ion-electron system (eV)
  ---------------------------------------------------
  alpha Z        PSCENC =       651.60147728
  Ewald energy   TEWEN  =     -6826.32923361
  -Hartree energ DENC   =    -30620.43868409
  -exchange      EXHF   =         0.00000000
  -V(xc)+E(xc)   XCENC  =      1784.15014571
  PAW double counting   =     27881.11449549   -27221.32254703
  entropy T*S    EENTRO =        -0.00000000
  eigenvalues    EBANDS =     -5458.70285780
  atomic energy  EATOM  =     38938.29198303
  Solvation  Ediel_sol  =         0.00000000
  ---------------------------------------------------
  free energy    TOTEN  =      -871.63522101 eV

  energy without entropy =     -871.63522101  energy(sigma->0) =     -871.63522101


--------------------------------------------------------------------------------------------------------




--------------------------------------- Iteration      1(  18)  ---------------------------------------


[...]
      -0.000240191337974       0.000486976009429       0.000044862333078
       0.000320192965631       0.000302069588391       0.000016765633133
      -0.000015229814862       0.000096231344169       0.000011508071723
       0.000404335592193      -0.000265344821907      -0.000964717565341
       0.000579460274126       0.001077634705681      -0.000870203929436
       0.000921639525788       0.000943968164025      -0.000172844202422
       0.000732068014326      -0.000825884114923       0.001087426670168
       0.000134930545959       0.000157276741245       0.000169620268325
       0.001060021129761      -0.000090346626648       0.000805405002504
       0.000231812733438      -0.000537168326754      -0.001716576810205
       0.000176310719926       0.000987210105199      -0.000453409324038
       0.000253002207723       0.000090447365355       0.000582290831202
       0.000067879177814       0.000749260756320      -0.000887030198442
       0.000013221439322       0.000561899151506       0.000372327593789
       0.000178036912533       0.000899673193232      -0.001069964353625
       0.001612925789410      -0.000204540391479       0.000029088658355
       0.000624629067663       0.001069799477461      -0.000989398504342
       0.000008639886266       0.000838738218342       0.000198307117870
      -0.000065317756160       0.001688140959887      -0.000073050472953
      -0.000339116960602       0.000545018974394      -0.000404067262375
      -0.000513705149725       0.002056327443871      -0.000271999949990
       0.001315979921699       0.000475352699993      -0.000725376660450
       0.000318818908656       0.000617679083247      -0.000138393801058
       0.001985168820145       0.001722593949289       0.000536871307756
       0.000583758365257       0.000673128872111      -0.000847532507789
       0.000785011554816       0.000464804717086       0.000013946340797
       0.000515523535119      -0.000058430812491      -0.001308138255653
       0.000415558697508      -0.001401804864260      -0.000009030065498
       0.000395838748557       0.000051259951714      -0.000560132446200
       0.000293803120062       0.001025772563184      -0.001118502247848
       0.001145888362113       0.002222905756741      -0.000522569078234
       0.000644464637469       0.000082293183899       0.000802625867105
       0.000096439291099      -0.000036143969668      -0.000120315909586
       0.000391942776601       0.001853961728140      -0.000030643770558
       0.001148033596509       0.000840652680286      -0.000866515266083
      -0.000294773750720       0.000616931836504       0.001215998393271
       0.000692523164628       0.000443638233495       0.002081489548869
       0.001172867009332       0.000151409767146       0.000104835257687
       0.000672276085663       0.000474235955056       0.000370155139445
       0.000619795986592      -0.000359334161887      -0.001393821817712
      -0.000164768787856       0.000698408905877      -0.000253963764301
      -0.000669811898407      -0.000052163855119      -0.000391281156405
       0.004082811134413       0.007121402865025      -0.000918881988867
       0.000570743354201       0.000131938924974      -0.001603425742872
      -0.000958311036925      -0.000137209793826       0.001409031628914
       0.001463057110464       0.001411651137165      -0.000883902635095
      -0.000072090041171       0.000012193670646      -0.001260675831174
       0.000732329269681       0.001422732132904      -0.001025931865897
       0.002428524577409       0.002869285695229      -0.001442476841621
       0.001129055506283       0.001913839431267       0.001744989057325
       0.000055232890494       0.000232669123112       0.001471753629643
      -0.000715314550926      -0.000465504751117      -0.000731835976623
      -0.000676811423748       0.000208455020575      -0.001954922585397
      -0.001537767708718      -0.001424216496835       0.000433128222043
       0.000438763998872       0.000309868989722       0.000384291882145
       0.000673986469020       0.000301737535241      -0.000083984142156
      -0.000379363944091      -0.001345256389818       0.000325202627942
      -0.000177822764564       0.000376649173373      -0.000963416066569
       0.000542878503679       0.000500840639447      -0.000918928865377
      -0.000754756739983       0.001496249360970       0.000243524747029
       0.000732338744607       0.000045080792382      -0.001277295793628
       0.001162573318208      -0.013054069173228       0.014136967310540
      -0.016449723329201       0.003006971129657       0.025213917459155
       0.000454679128195      -0.000612542999924       0.000501320398634
       0.000669200991432       0.000292035841508      -0.000172791716606
      -0.000423921803223       0.000873427457418      -0.000742430105367
       0.000683175166416       0.000744398064379       0.000108360152640
       0.000064099856813      -0.000091553737889       0.000102662946258
       0.000072562992508      -0.000389637198427       0.000382843004288
       0.000547825887973       0.000157478171653       0.000209634127032
      -0.000497995577832       0.000843836687711      -0.000446684314223
       0.000097758162406       0.000228684805451       0.000134975438230
       0.000349480693261      -0.000642263000881       0.000542263508156
      -0.000010605235362       0.000007133370635      -0.000133565680700
       0.000503258454216       0.001094609732328      -0.000393475919917
       0.000399404693835       0.000037150096195      -0.000549584340411
       0.000917213659353       0.000633561704038       0.000278095286094
      -0.000949809316207       0.000296350605935       0.000819028036671
       0.000100099739551      -0.000291453155723      -0.000802977924224
      -0.000815771274880      -0.000376500128128      -0.000199878080864
       0.000355003243954       0.000295788071316      -0.000403648294189
       0.000006662744551       0.000002292746002       0.000096109790003
       0.000128094135970      -0.000227860113333       0.000421814234549
       0.000768697299311       0.000534200972840      -0.000419404903278
       0.001410868390208       0.000155587555079      -0.001502365159419
       0.000350618028872      -0.000194021874538      -0.000451614925907
       0.000084475874144       0.000939670161194      -0.000520366749328
      -0.000067734892733       0.000250090059390      -0.000794036450057
       0.000037080703395       0.000092973164280      -0.000182690306999
       0.000201103159323       0.000585512865885      -0.000337430748353
      -0.004167353418978      -0.004859139230156       0.000116495156166
       0.000612290581730       0.000504314474418      -0.000045205907182
       0.000098710162262       0.001245652807518      -0.000889913452766
      -0.000456311439876       0.001675720072041      -0.000760035644362
       0.000151817902509       0.000312344044304      -0.000062431613240
       0.000604831015211       0.000620166481490       0.000276953586869
       0.000538172758029       0.000616837392376      -0.001362807500752
       0.000057197348074       0.000710878184753      -0.001236300199102
      -0.000664929790230      -0.001315114834985       0.000012900479211
      -0.000142415508596      -0.000650277854388       0.000010473721702
      -0.000086174748649       0.000413688139310       0.000650812727567
       0.003023223220994      -0.005458767196428       0.005371552306700
      -0.016441802328833      -0.033416739541459      -0.015550647448663
DYMAT: ------------------------------
DYMAT: DEGREE OF FREEDOM  73  1  1
DYMAT: ------------------------------
DYMAT: DEGREE OF FREEDOM  73  2  2
DYMAT: ------------------------------
DYMAT: DEGREE OF FREEDOM  73  3  3
DYMAT: ------------------------------
DYMAT: DEGREE OF FREEDOM  74  1  4
DYMAT: ------------------------------
DYMAT: DEGREE OF FREEDOM  74  2  5
DYMAT: ------------------------------
DYMAT: DEGREE OF FREEDOM  74  3  6
DYMAT: ------------------------------
DYMAT: DEGREE OF FREEDOM 114  1  7
DYMAT: ------------------------------
DYMAT: DEGREE OF FREEDOM 114  2  8
DYMAT: ------------------------------
DYMAT: DEGREE OF FREEDOM 114  3  9
DYMAT: LEAVING
 stress matrix after NEB project (eV)
    -23.89896     -0.48847      0.28439
     -0.48847    -25.32462     -0.70802
      0.28439     -0.70802    -29.04102
  FORCES: max atom, RMS     0.040359    0.005385
  FORCE total and by dimension    0.057493    0.033417
  Stress total and by dimension   45.359886   29.041020


--------------------------------------------------------------------------------------------------------


     LOOP+:  cpu time  231.7487: real time  232.4820
    4ORBIT:  cpu time    0.0000: real time    0.0000
 


 total charge     
 
# of ion       s       p       d       tot
------------------------------------------
    1        1.573   3.696   0.000   5.269
    2        1.571   3.709   0.000   5.280
    3        1.576   3.700   0.000   5.276
    4        1.573   3.695   0.000   5.268
    5        1.572   3.702   0.000   5.274
    6        1.574   3.667   0.000   5.241
    7        1.575   3.709   0.000   5.283
    8        1.575   3.670   0.000   5.245
    9        1.577   3.672   0.000   5.249
   10        1.572   3.698   0.000   5.270
   11        1.575   3.694   0.000   5.268
   12        1.576   3.687   0.000   5.264
   13        1.569   3.716   0.000   5.285
   14        1.575   3.656   0.000   5.231
   15        1.570   3.722   0.000   5.292
   16        1.575   3.636   0.000   5.211
   17        1.575   3.685   0.000   5.260
   18        1.575   3.662   0.000   5.237
   19        1.573   3.708   0.000   5.281
   20        1.576   3.699   0.000   5.275
   21        1.577   3.700   0.000   5.277
   22        1.574   3.700   0.000   5.274
   23        1.577   3.701   0.000   5.278
   24        1.575   3.700   0.000   5.276
   25        1.574   3.702   0.000   5.276
   26        1.580   3.659   0.000   5.239
   27        1.575   3.649   0.000   5.223
   28        1.575   3.703   0.000   5.278
   29        1.575   3.707   0.000   5.283
   30        1.576   3.700   0.000   5.276
   31        1.575   3.709   0.000   5.284
   32        1.579   3.667   0.000   5.246
   33        1.576   3.699   0.000   5.276
   34        1.576   3.701   0.000   5.277
   35        1.576   3.704   0.000   5.280
   36        1.576   3.697   0.000   5.273
   37        1.573   3.711   0.000   5.284
   38        1.575   3.645   0.000   5.220
   39        1.570   3.735   0.000   5.305
   40        1.570   3.719   0.000   5.290
   41        1.571   3.727   0.000   5.298
   42        1.574   3.705   0.000   5.279
   43        1.573   3.719   0.000   5.292
   44        1.574   3.635   0.000   5.209
   45        1.577   3.700   0.000   5.277
   46        1.574   3.705   0.000   5.278
   47        1.570   3.722   0.000   5.292
   48        1.572   3.715   0.000   5.287
   49        1.575   3.696   0.000   5.270
   50        1.569   3.722   0.000   5.291
   51        1.575   3.708   0.000   5.283
   52        1.578   3.689   0.000   5.267
   53        1.575   3.699   0.000   5.273
   54        1.576   3.676   0.000   5.252
   55        1.574   3.706   0.000   5.279
   56        1.574   3.698   0.000   5.272
   57        1.579   3.657   0.000   5.236
   58        1.574   3.694   0.000   5.268
   59        1.576   3.686   0.000   5.262
   60        1.574   3.706   0.000   5.279
   61        1.578   3.659   0.000   5.237
   62        1.568   3.725   0.000   5.294
   63        1.572   3.705   0.000   5.277
   64        1.576   3.688   0.000   5.264
   65        1.571   3.708   0.000   5.279
   66        1.577   3.657   0.000   5.234
   67        1.574   3.691   0.000   5.265
   68        1.576   3.694   0.000   5.271
   69        1.570   3.719   0.000   5.289
   70        1.570   3.724   0.000   5.294
   71        1.576   3.683   0.000   5.259
   72        1.576   3.654   0.000   5.230
   73        1.621   3.491   0.000   5.111
   74        1.641   3.458   0.000   5.099
   75        0.639   0.990   0.000   1.629
   76        0.644   0.992   0.000   1.636
   77        0.646   1.001   0.000   1.647
   78        0.637   0.983   0.000   1.620
   79        0.641   0.993   0.000   1.634
   80        0.645   0.991   0.000   1.636
   81        0.639   0.989   0.000   1.628
   82        0.645   0.996   0.000   1.641
   83        0.638   0.985   0.000   1.623
   84        0.640   0.990   0.000   1.630
   85        0.640   0.993   0.000   1.634
   86        0.642   1.000   0.000   1.642
   87        0.645   0.992   0.000   1.637
   88        0.639   0.986   0.000   1.624
   89        0.641   0.990   0.000   1.631
   90        0.639   0.988   0.000   1.627
   91        0.643   0.993   0.000   1.636
   92        0.641   0.993   0.000   1.635
   93        0.646   0.996   0.000   1.642
   94        0.641   0.994   0.000   1.635
   95        0.639   0.989   0.000   1.628
   96        0.644   0.988   0.000   1.632
   97        0.643   0.989   0.000   1.632
   98        0.639   0.981   0.000   1.620
   99        0.642   0.997   0.000   1.639
  100        0.645   0.992   0.000   1.637
  101        0.643   0.990   0.000   1.633
  102        0.646   0.995   0.000   1.641
  103        0.642   0.991   0.000   1.633
  104        0.641   0.993   0.000   1.635
  105        0.643   0.992   0.000   1.634
  106        0.640   0.988   0.000   1.628
  107        0.638   0.985   0.000   1.623
  108        0.341   0.452   0.000   0.793
  109        0.341   0.454   0.000   0.795
  110        0.340   0.453   0.000   0.793
  111        0.113   0.064   9.211   9.388
  112        0.124   0.080   9.211   9.414
  113        0.146   0.088   9.171   9.406
  114        1.383   2.192   0.000   3.576
--------------------------------------------------
tot        140.572 309.398  27.593 477.564
 


 magnetization (x)
 
# of ion       s       p       d       tot
------------------------------------------
    1       -0.000   0.000   0.000   0.000
    2       -0.000  -0.000   0.000  -0.000
    3       -0.000   0.000   0.000   0.000
    4        0.000  -0.000   0.000  -0.000
    5       -0.000   0.000   0.000   0.000
    6        0.000   0.000   0.000   0.000
    7        0.000  -0.000   0.000  -0.000
    8        0.000  -0.000   0.000  -0.000
    9       -0.000  -0.000   0.000  -0.000
   10       -0.000  -0.000   0.000  -0.000
   11        0.000  -0.000   0.000  -0.000
   12        0.000  -0.000   0.000  -0.000
   13        0.000  -0.000   0.000  -0.000
   14        0.000  -0.000   0.000  -0.000
   15        0.000  -0.000   0.000  -0.000
   16        0.000  -0.000   0.000  -0.000
   17        0.000  -0.000   0.000  -0.000
   18       -0.000  -0.000   0.000  -0.000
   19        0.000   0.000   0.000   0.000
   20        0.000   0.000   0.000   0.000
   21       -0.000  -0.000   0.000  -0.000
   22        0.000  -0.000   0.000  -0.000
   23       -0.000  -0.000   0.000  -0.000
   24        0.000  -0.000   0.000  -0.000
   25        0.000  -0.000   0.000  -0.000
   26       -0.000  -0.000   0.000  -0.000
   27        0.000   0.000   0.000   0.000
   28       -0.000   0.000   0.000   0.000
   29       -0.000  -0.000   0.000  -0.000
   30        0.000   0.000   0.000   0.000
   31        0.000  -0.000   0.000   0.000
   32        0.000  -0.000   0.000  -0.000
   33       -0.000  -0.000   0.000  -0.000
   34        0.000  -0.000   0.000  -0.000
   35        0.000  -0.000   0.000  -0.000
   36        0.000  -0.000   0.000  -0.000
   37       -0.000  -0.000   0.000  -0.000
   38       -0.000  -0.000   0.000  -0.000
   39       -0.000   0.000   0.000   0.000
   40        0.000   0.000   0.000   0.000
   41        0.000  -0.000   0.000  -0.000
   42       -0.000  -0.000   0.000  -0.000
   43        0.000  -0.000   0.000  -0.000
   44       -0.000   0.000   0.000  -0.000
   45        0.000  -0.000   0.000  -0.000
   46        0.000   0.000   0.000   0.000
   47        0.000  -0.000   0.000  -0.000
   48       -0.000  -0.000   0.000  -0.000
   49        0.000  -0.000   0.000  -0.000
   50        0.000  -0.000   0.000  -0.000
   51        0.000  -0.000   0.000  -0.000
   52       -0.000   0.000   0.000  -0.000
   53       -0.000  -0.000   0.000  -0.000
   54       -0.000  -0.000   0.000  -0.000
   55        0.000  -0.000   0.000  -0.000
   56       -0.000  -0.000   0.000  -0.000
   57        0.000  -0.000   0.000  -0.000
   58       -0.000   0.000   0.000   0.000
   59        0.000   0.000   0.000   0.000
   60        0.000  -0.000   0.000   0.000
   61        0.000  -0.000   0.000  -0.000
   62       -0.000  -0.000   0.000  -0.000
   63        0.000  -0.000   0.000  -0.000
   64       -0.000   0.000   0.000   0.000
   65        0.000  -0.000   0.000  -0.000
   66       -0.000  -0.000   0.000  -0.000
   67        0.000  -0.000   0.000  -0.000
   68       -0.000  -0.000   0.000  -0.000
   69        0.000  -0.000   0.000  -0.000
   70        0.000  -0.000   0.000  -0.000
   71        0.000   0.000   0.000   0.000
   72        0.000  -0.000   0.000  -0.000
   73        0.000  -0.000   0.000  -0.000
   74        0.000  -0.000   0.000  -0.000
   75       -0.000  -0.000   0.000  -0.000
   76        0.000   0.000   0.000   0.000
   77       -0.000  -0.000   0.000  -0.000
   78        0.000  -0.000   0.000   0.000
   79       -0.000  -0.000   0.000  -0.000
   80        0.000   0.000   0.000   0.000
   81        0.000   0.000   0.000   0.000
   82       -0.000   0.000   0.000   0.000
   83        0.000   0.000   0.000   0.000
   84       -0.000   0.000   0.000   0.000
   85        0.000  -0.000   0.000  -0.000
   86        0.000  -0.000   0.000  -0.000
   87       -0.000  -0.000   0.000  -0.000
   88        0.000   0.000   0.000   0.000
   89       -0.000  -0.000   0.000  -0.000
   90        0.000   0.000   0.000   0.000
   91       -0.000  -0.000   0.000  -0.000
   92        0.000  -0.000   0.000  -0.000
   93       -0.000  -0.000   0.000  -0.000
   94        0.000   0.000   0.000   0.000
   95        0.000   0.000   0.000   0.000
   96       -0.000  -0.000   0.000  -0.000
   97       -0.000   0.000   0.000   0.000
   98        0.000   0.000   0.000   0.000
   99       -0.000   0.000   0.000   0.000
  100       -0.000   0.000   0.000  -0.000
  101       -0.000   0.000   0.000   0.000
  102       -0.000   0.000   0.000   0.000
  103       -0.000  -0.000   0.000  -0.000
  104        0.000  -0.000   0.000  -0.000
  105        0.000  -0.000   0.000  -0.000
  106       -0.000   0.000   0.000   0.000
  107        0.000   0.000   0.000   0.000
  108        0.000  -0.000   0.000  -0.000
  109       -0.000  -0.000   0.000  -0.000
  110       -0.000   0.000   0.000  -0.000
  111        0.000  -0.000  -0.000  -0.000
  112       -0.000   0.000  -0.000  -0.000
  113        0.000  -0.000  -0.000  -0.000
  114       -0.000   0.000   0.000   0.000
--------------------------------------------------
tot          0.000  -0.000  -0.000  -0.000
 

 total amount of memory used by VASP MPI-rank0   211564. kBytes
=======================================================================

   base      :      30000. kBytes
   nonlr-proj:      18847. kBytes
   fftplans  :      63994. kBytes
   grid      :      59474. kBytes
   one-center:        902. kBytes
   wavefun   :      38347. kBytes
 
  
  
 General timing and accounting informations for this job:
 ========================================================
  
                  Total CPU time used (sec):     3243.139
                            User time (sec):     3136.346
                          System time (sec):      106.793
                         Elapsed time (sec):     3255.139
  
                   Maximum memory used (kb):      339444.
                   Average memory used (kb):           0.
  
                          Minor page faults:      5450927
                          Major page faults:            4
                 Voluntary context switches:         1983
