    9    9   28    2
  0.2657266E+03  0.1367500E-08  0.1367500E-08  0.1476700E-08  0.0000000E+00
  1.000000000000000E-004
  CAR 
 zeolite                                 
     20      1     20
 
  0.0000000E+00  0.0000000E+00  0.0000000E+00  0.1000000E+01
    1      -19.639619    -19.639619   1.000000   1.000000
    2      -17.200058    -17.200058   1.000000   1.000000
    3      -14.513819    -14.513819   1.000000   1.000000
    4      -10.581029    -10.581029   1.000000   1.000000
    5      -10.490213    -10.490213   1.000000   1.000000
    6      -10.215449    -10.215449   1.000000   1.000000
    7       -9.675153     -9.675153   1.000000   1.000000
    8       -8.674613     -8.674613   1.000000   1.000000
    9       -7.444080     -7.444080   1.000000   1.000000
   10       -4.907895     -4.907895   1.000000   1.000000
   11       -0.486432     -0.486433   0.000000   0.000000
   12       -0.258219     -0.258220   0.000000   0.000000
   13        0.293434      0.293435   0.000000   0.000000
   14        0.371926      0.371927   0.000000   0.000000
   15        0.524679      0.524678   0.000000   0.000000
   16        0.577055      0.577056   0.000000   0.000000
   17        0.789493      0.789492   0.000000   0.000000
   18        0.861013      0.861013   0.000000   0.000000
   19        0.983045      0.983044   0.000000   0.000000
   20        1.158195      1.158194   0.000000   0.000000
