>>>  VASP 5.4.4 with BEEF-vdw and vtst
--------------------------------------------------------
>>>  Job information
     SLURM_JOBID=8854261
     SLURM_JOB_NODELIST=cpn-q07-31-02
     SLURM_NNODES=1
     SLURMTMPDIR=/scratch/8854261
     working directory = /projects/academic/ericwalk/ruthbell/Ads_Ag-SSZ13/DMS_gas/vtst
--------------------------------------------------------
>>>  Module information
--------------------------------------------------------
>>>  Running Configuration
NPROCS=16
--------------------------------------------------------
>>>  Job started at Wed Jul  6 12:11:27 EDT 2022
--------------------------------------------------------
 running on   16 total cores
 distrk:  each k-point on   16 cores,    1 groups
 distr:  one band on    4 cores,    4 groups
 using from now: INCAR     
 vasp.5.4.4.18Apr17-6-g9f103f2a35 (build Dec 31 2018 11:41:54) complex          
  
 POSCAR found type information on POSCAR  S  C  H 
 POSCAR found :  3 types and       9 ions
 scaLAPACK will be used
 LDA part: xc-table for Pade appr. of Perdew
 POSCAR found type information on POSCAR  S  C  H 
 POSCAR found :  3 types and       9 ions
 POSCAR, INCAR and KPOINTS ok, starting setup
 FFT: planning ...
 WAVECAR not read
 entering main loop
       N       E                     dE             d eps       ncg     rms          rms(c)
DAV:   1     0.867332280802E+02    0.86733E+02   -0.46102E+03   112   0.426E+02
DAV:   2    -0.118249910172E+02   -0.98558E+02   -0.96810E+02   136   0.946E+01
DAV:   3    -0.357240651500E+02   -0.23899E+02   -0.23861E+02    96   0.487E+01
DAV:   4    -0.372130228096E+02   -0.14890E+01   -0.14812E+01   128   0.157E+01
DAV:   5    -0.372347081118E+02   -0.21685E-01   -0.21675E-01   100   0.200E+00    0.188E+01
DAV:   6    -0.153336347998E+02    0.21901E+02   -0.65157E+01   100   0.365E+01    0.813E+00
DAV:   7    -0.315260296876E+02   -0.16192E+02   -0.14598E+01   104   0.164E+01    0.465E+00
DAV:   8    -0.355384391530E+02   -0.40124E+01   -0.19302E+00   112   0.593E+00    0.260E+00
DAV:   9    -0.416674447623E+02   -0.61290E+01   -0.35515E+00    96   0.670E+00    0.990E-01
DAV:  10    -0.425556000619E+02   -0.88816E+00   -0.21465E-01   120   0.202E+00    0.670E-01
DAV:  11    -0.434614039445E+02   -0.90580E+00   -0.28103E-01    80   0.190E+00    0.338E-01
DAV:  12    -0.437295366318E+02   -0.26813E+00   -0.45344E-02   104   0.803E-01    0.191E-01
DAV:  13    -0.440599701588E+02   -0.33043E+00   -0.43174E-02   100   0.686E-01    0.897E-02
DAV:  14    -0.441262380845E+02   -0.66268E-01   -0.72510E-03   108   0.289E-01    0.502E-02
DAV:  15    -0.441356553293E+02   -0.94172E-02   -0.14751E-03   112   0.155E-01    0.337E-02
DAV:  16    -0.441409702233E+02   -0.53149E-02   -0.12963E-03   100   0.136E-01    0.240E-02
DAV:  17    -0.441407468556E+02    0.22337E-03   -0.93237E-04    92   0.102E-01    0.182E-02
DAV:  18    -0.441496286796E+02   -0.88818E-02   -0.46365E-04    96   0.794E-02    0.112E-02
DAV:  19    -0.441552545575E+02   -0.56259E-02   -0.16176E-04    92   0.483E-02    0.560E-03
DAV:  20    -0.441564183975E+02   -0.11638E-02   -0.38217E-05   104   0.238E-02    0.319E-03
DAV:  21    -0.441564892446E+02   -0.70847E-04   -0.97060E-06    96   0.122E-02    0.223E-03
DAV:  22    -0.441564900446E+02   -0.79998E-06   -0.46093E-06    88   0.899E-03    0.162E-03
DAV:  23    -0.441566213056E+02   -0.13126E-03   -0.34398E-06    92   0.845E-03    0.131E-03
DAV:  24    -0.441567818252E+02   -0.16052E-03   -0.30167E-06    92   0.686E-03    0.616E-04
DAV:  25    -0.441567997606E+02   -0.17935E-04   -0.91776E-07   108   0.419E-03    0.389E-04
DAV:  26    -0.441568071735E+02   -0.74129E-05   -0.15450E-07   108   0.169E-03    0.198E-04
DAV:  27    -0.441568085134E+02   -0.13399E-05   -0.57340E-08   100   0.902E-04    0.145E-04
DAV:  28    -0.441568110208E+02   -0.25074E-05   -0.29082E-08   104   0.544E-04    0.100E-04
DAV:  29    -0.441568127702E+02   -0.17494E-05   -0.24946E-08    96   0.446E-04    0.905E-05
DAV:  30    -0.441568132619E+02   -0.49171E-06   -0.82767E-09    92   0.274E-04    0.862E-05
DAV:  31    -0.441568134384E+02   -0.17650E-06   -0.25587E-09    96   0.173E-04    0.848E-05
DAV:  32    -0.441568135112E+02   -0.72818E-07   -0.13902E-10    88   0.886E-05    0.845E-05
DAV:  33    -0.441568135835E+02   -0.72289E-07   -0.62679E-11    88   0.774E-05    0.844E-05
DAV:  34    -0.441568136193E+02   -0.35759E-07    0.58469E-11    88   0.694E-05    0.843E-05
DAV:  35    -0.441568136317E+02   -0.12397E-07    0.33288E-10    96   0.299E-05    0.843E-05
DAV:  36    -0.441568136430E+02   -0.11294E-07    0.31258E-10    96   0.302E-05    0.842E-05
DAV:  37    -0.441568136457E+02   -0.27222E-08    0.37247E-10    96   0.140E-05
   1 F= -.44156814E+02 E0= -.44156814E+02  d E =-.441568E+02  mag=     0.0000
quench:  g(F)=  0.000E+00 g(S)=  0.000E+00 dE (1.order)= 0.000E+00
 bond charge predicted
       N       E                     dE             d eps       ncg     rms          rms(c)
DAV:   1    -0.441567974181E+02    0.16225E-04   -0.10594E-03    96   0.137E-01    0.757E-03
DAV:   2    -0.441568023578E+02   -0.49397E-05   -0.56374E-05   128   0.380E-02    0.555E-03
DAV:   3    -0.441568019838E+02    0.37404E-06   -0.17192E-06   112   0.741E-03    0.286E-03
DAV:   4    -0.441568022761E+02   -0.29226E-06   -0.69876E-07    96   0.415E-03    0.880E-04
DAV:   5    -0.441568023519E+02   -0.75823E-07   -0.41758E-08    96   0.125E-03    0.257E-04
DAV:   6    -0.441568023515E+02    0.39358E-09   -0.13401E-08   112   0.613E-04
   2 F= -.44156802E+02 E0= -.44156802E+02  d E =0.112942E-04  mag=     0.0000
quench:  g(F)=  0.000E+00 g(S)=  0.000E+00 dE (1.order)= 0.000E+00
 bond charge predicted
       N       E                     dE             d eps       ncg     rms          rms(c)
DAV:   1    -0.441567918986E+02    0.10453E-04   -0.21476E-03    80   0.188E-01    0.107E-02
DAV:   2    -0.441567986876E+02   -0.67890E-05   -0.93554E-05    88   0.476E-02    0.611E-03
DAV:   3    -0.441567983895E+02    0.29816E-06   -0.31724E-06   128   0.924E-03    0.321E-03
DAV:   4    -0.441567986432E+02   -0.25374E-06   -0.46606E-07    84   0.338E-03    0.951E-04
DAV:   5    -0.441567986829E+02   -0.39719E-07   -0.51117E-08   112   0.119E-03    0.300E-04
DAV:   6    -0.441567986803E+02    0.26603E-08   -0.74727E-09   112   0.411E-04
   3 F= -.44156799E+02 E0= -.44156799E+02  d E =0.367124E-05  mag=     0.0000
quench:  g(F)=  0.000E+00 g(S)=  0.000E+00 dE (1.order)= 0.000E+00
 bond charge predicted
       N       E                     dE             d eps       ncg     rms          rms(c)
DAV:   1    -0.441568107457E+02   -0.12063E-04   -0.22920E-03    80   0.180E-01    0.119E-02
DAV:   2    -0.441568194517E+02   -0.87060E-05   -0.11059E-04    92   0.450E-02    0.567E-03
DAV:   3    -0.441568194298E+02    0.21877E-07   -0.29467E-06   104   0.852E-03    0.345E-03
DAV:   4    -0.441568196091E+02   -0.17930E-06   -0.11770E-06   104   0.473E-03    0.737E-04
DAV:   5    -0.441568196258E+02   -0.16669E-07   -0.16594E-07   104   0.199E-03    0.466E-04
DAV:   6    -0.441568196369E+02   -0.11068E-07   -0.31116E-08   112   0.758E-04    0.162E-04
DAV:   7    -0.441568196477E+02   -0.10807E-07   -0.36802E-09   112   0.292E-04    0.105E-04
DAV:   8    -0.441568196606E+02   -0.12939E-07   -0.25979E-10    96   0.111E-04    0.911E-05
DAV:   9    -0.441568196736E+02   -0.12957E-07    0.12420E-10    88   0.670E-05    0.881E-05
DAV:  10    -0.441568196981E+02   -0.24503E-07   -0.28790E-10    88   0.812E-05    0.859E-05
DAV:  11    -0.441568197128E+02   -0.14701E-07    0.72813E-11    96   0.513E-05    0.859E-05
DAV:  12    -0.441568197250E+02   -0.12258E-07    0.22358E-10    80   0.407E-05    0.849E-05
DAV:  13    -0.441568197337E+02   -0.86794E-08    0.21742E-10    96   0.345E-05
   4 F= -.44156820E+02 E0= -.44156820E+02  d E =-.210534E-04  mag=    -0.0000
quench:  g(F)=  0.000E+00 g(S)=  0.000E+00 dE (1.order)= 0.000E+00
 bond charge predicted
       N       E                     dE             d eps       ncg     rms          rms(c)
DAV:   1    -0.441567870310E+02    0.32694E-04   -0.34434E-03    80   0.329E-01    0.128E-02
DAV:   2    -0.441567940164E+02   -0.69854E-05   -0.11134E-04   112   0.486E-02    0.764E-03
DAV:   3    -0.441567934462E+02    0.57019E-06   -0.23646E-06   104   0.897E-03    0.444E-03
DAV:   4    -0.441567941115E+02   -0.66531E-06   -0.20978E-06   104   0.786E-03    0.889E-04
DAV:   5    -0.441567941789E+02   -0.67375E-07   -0.40097E-07   112   0.343E-03    0.650E-04
DAV:   6    -0.441567942003E+02   -0.21403E-07   -0.37390E-08   112   0.107E-03    0.297E-04
DAV:   7    -0.441567942225E+02   -0.22205E-07   -0.15376E-08   112   0.657E-04    0.140E-04
DAV:   8    -0.441567942340E+02   -0.11462E-07   -0.13872E-09   112   0.236E-04    0.103E-04
DAV:   9    -0.441567942469E+02   -0.12948E-07   -0.46867E-10    96   0.154E-04    0.895E-05
DAV:  10    -0.441567942663E+02   -0.19432E-07   -0.79581E-11    96   0.991E-05    0.867E-05
DAV:  11    -0.441567942865E+02   -0.20211E-07   -0.37916E-11    96   0.839E-05    0.859E-05
DAV:  12    -0.441567943098E+02   -0.23219E-07   -0.11928E-10    88   0.651E-05    0.849E-05
DAV:  13    -0.441567943235E+02   -0.13766E-07    0.10391E-10    88   0.540E-05    0.847E-05
DAV:  14    -0.441567943330E+02   -0.94259E-08    0.24180E-10    96   0.363E-05
   5 F= -.44156794E+02 E0= -.44156794E+02  d E =0.254007E-04  mag=    -0.0000
quench:  g(F)=  0.000E+00 g(S)=  0.000E+00 dE (1.order)= 0.000E+00
 bond charge predicted
       N       E                     dE             d eps       ncg     rms          rms(c)
DAV:   1    -0.441567884358E+02    0.58877E-05   -0.46852E-03    80   0.409E-01    0.118E-02
DAV:   2    -0.441567894725E+02   -0.10367E-05   -0.51672E-05   112   0.419E-02    0.868E-03
DAV:   3    -0.441567891661E+02    0.30639E-06   -0.43993E-06   112   0.135E-02    0.205E-03
DAV:   4    -0.441567894094E+02   -0.24333E-06   -0.13460E-06   112   0.554E-03    0.799E-04
DAV:   5    -0.441567893867E+02    0.22659E-07   -0.94985E-08   112   0.170E-03    0.361E-04
DAV:   6    -0.441567893853E+02    0.14281E-08   -0.21589E-08   112   0.806E-04
   6 F= -.44156789E+02 E0= -.44156789E+02  d E =0.494765E-05  mag=     0.0000
quench:  g(F)=  0.000E+00 g(S)=  0.000E+00 dE (1.order)= 0.000E+00
 bond charge predicted
       N       E                     dE             d eps       ncg     rms          rms(c)
DAV:   1    -0.441567875663E+02    0.18204E-05   -0.49431E-03    80   0.414E-01    0.126E-02
DAV:   2    -0.441567881875E+02   -0.62114E-06   -0.43691E-05    88   0.406E-02    0.943E-03
DAV:   3    -0.441567878259E+02    0.36163E-06   -0.93499E-06   112   0.191E-02    0.133E-03
DAV:   4    -0.441567878645E+02   -0.38693E-07   -0.18062E-06   112   0.723E-03    0.759E-04
DAV:   5    -0.441567879120E+02   -0.47496E-07   -0.13739E-07   112   0.187E-03    0.371E-04
DAV:   6    -0.441567879301E+02   -0.18043E-07   -0.94596E-09   112   0.550E-04    0.141E-04
DAV:   7    -0.441567879457E+02   -0.15564E-07   -0.39561E-09   112   0.356E-04    0.104E-04
DAV:   8    -0.441567879842E+02   -0.38513E-07   -0.10579E-09    96   0.189E-04    0.891E-05
DAV:   9    -0.441567880389E+02   -0.54781E-07   -0.13975E-09    96   0.149E-04    0.864E-05
DAV:  10    -0.441567880758E+02   -0.36898E-07   -0.21505E-10    80   0.110E-04    0.852E-05
DAV:  11    -0.441567881211E+02   -0.45211E-07   -0.35026E-10    80   0.848E-05    0.843E-05
DAV:  12    -0.441567881448E+02   -0.23756E-07    0.53717E-11    96   0.557E-05    0.842E-05
DAV:  13    -0.441567881573E+02   -0.12518E-07    0.23171E-10    80   0.381E-05    0.841E-05
DAV:  14    -0.441567881618E+02   -0.44430E-08    0.32361E-10    96   0.258E-05
   7 F= -.44156788E+02 E0= -.44156788E+02  d E =0.122354E-05  mag=     0.0000
quench:  g(F)=  0.000E+00 g(S)=  0.000E+00 dE (1.order)= 0.000E+00
 bond charge predicted
       N       E                     dE             d eps       ncg     rms          rms(c)
DAV:   1    -0.441567906883E+02   -0.25309E-05   -0.48886E-03    80   0.413E-01    0.117E-02
DAV:   2    -0.441567934959E+02   -0.28076E-05   -0.66549E-05   104   0.470E-02    0.974E-03
DAV:   3    -0.441567924658E+02    0.10300E-05   -0.58643E-06   112   0.157E-02    0.234E-03
DAV:   4    -0.441567927421E+02   -0.27629E-06   -0.15154E-06   112   0.661E-03    0.766E-04
DAV:   5    -0.441567927658E+02   -0.23634E-07   -0.48997E-08   128   0.115E-03    0.359E-04
DAV:   6    -0.441567927510E+02    0.14788E-07   -0.15621E-08   112   0.741E-04    0.133E-04
DAV:   7    -0.441567927694E+02   -0.18425E-07   -0.34748E-09   112   0.316E-04    0.102E-04
DAV:   8    -0.441567928058E+02   -0.36418E-07   -0.78206E-10    96   0.158E-04    0.890E-05
DAV:   9    -0.441567928514E+02   -0.45593E-07   -0.32184E-10    80   0.101E-04    0.864E-05
DAV:  10    -0.441567929226E+02   -0.71213E-07   -0.14153E-09    88   0.126E-04    0.853E-05
DAV:  11    -0.441567929549E+02   -0.32278E-07    0.42455E-12    80   0.838E-05    0.848E-05
DAV:  12    -0.441567929824E+02   -0.27492E-07    0.10312E-10    96   0.682E-05    0.845E-05
DAV:  13    -0.441567930075E+02   -0.25098E-07    0.81588E-11    80   0.539E-05    0.844E-05
DAV:  14    -0.441567930146E+02   -0.70980E-08    0.36464E-10    96   0.293E-05
   8 F= -.44156793E+02 E0= -.44156793E+02  d E =-.485281E-05  mag=    -0.0000
quench:  g(F)=  0.000E+00 g(S)=  0.000E+00 dE (1.order)= 0.000E+00
 bond charge predicted
       N       E                     dE             d eps       ncg     rms          rms(c)
DAV:   1    -0.441567948554E+02   -0.18479E-05   -0.49342E-03    96   0.408E-01    0.123E-02
DAV:   2    -0.441567954929E+02   -0.63751E-06   -0.45132E-05    96   0.411E-02    0.945E-03
DAV:   3    -0.441567949558E+02    0.53704E-06   -0.13086E-05   104   0.223E-02    0.265E-03
DAV:   4    -0.441567947978E+02    0.15805E-06   -0.25182E-06    96   0.920E-03    0.856E-04
DAV:   5    -0.441567947930E+02    0.48116E-08   -0.29321E-07   112   0.281E-03    0.367E-04
DAV:   6    -0.441567947943E+02   -0.13425E-08   -0.11341E-08   112   0.644E-04
   9 F= -.44156795E+02 E0= -.44156795E+02  d E =-.177974E-05  mag=    -0.0000
quench:  g(F)=  0.000E+00 g(S)=  0.000E+00 dE (1.order)= 0.000E+00
 bond charge predicted
       N       E                     dE             d eps       ncg     rms          rms(c)
DAV:   1    -0.441567931771E+02    0.16159E-05   -0.48988E-03    80   0.414E-01    0.127E-02
DAV:   2    -0.441567938768E+02   -0.69968E-06   -0.42026E-05   104   0.395E-02    0.926E-03
DAV:   3    -0.441567935609E+02    0.31589E-06   -0.95575E-06   104   0.189E-02    0.150E-03
DAV:   4    -0.441567935732E+02   -0.12255E-07   -0.16702E-06   112   0.712E-03    0.741E-04
DAV:   5    -0.441567936333E+02   -0.60145E-07   -0.13096E-07   112   0.191E-03    0.379E-04
DAV:   6    -0.441567936605E+02   -0.27188E-07   -0.92466E-09    96   0.541E-04    0.138E-04
DAV:   7    -0.441567936797E+02   -0.19212E-07   -0.26974E-09   112   0.291E-04    0.100E-04
DAV:   8    -0.441567937202E+02   -0.40481E-07   -0.10196E-09    96   0.188E-04    0.888E-05
DAV:   9    -0.441567937551E+02   -0.34920E-07   -0.49401E-10    96   0.143E-04    0.874E-05
DAV:  10    -0.441567937879E+02   -0.32806E-07   -0.18530E-10    96   0.124E-04    0.855E-05
DAV:  11    -0.441567938336E+02   -0.45694E-07   -0.70733E-10    96   0.111E-04    0.850E-05
DAV:  12    -0.441567938475E+02   -0.13906E-07    0.23912E-10    96   0.488E-05    0.845E-05
DAV:  13    -0.441567938710E+02   -0.23507E-07   -0.39826E-11    80   0.558E-05    0.845E-05
DAV:  14    -0.441567938754E+02   -0.43892E-08    0.31592E-10    96   0.285E-05
  10 F= -.44156794E+02 E0= -.44156794E+02  d E =0.918907E-06  mag=     0.0000
quench:  g(F)=  0.000E+00 g(S)=  0.000E+00 dE (1.order)= 0.000E+00
 bond charge predicted
       N       E                     dE             d eps       ncg     rms          rms(c)
DAV:   1    -0.441568049329E+02   -0.11062E-04   -0.28151E-03    80   0.311E-01    0.989E-03
DAV:   2    -0.441568062081E+02   -0.12752E-05   -0.35280E-05   104   0.338E-02    0.779E-03
DAV:   3    -0.441568060262E+02    0.18188E-06   -0.46738E-06   104   0.134E-02    0.102E-03
DAV:   4    -0.441568061037E+02   -0.77462E-07   -0.98123E-07   112   0.486E-03    0.657E-04
DAV:   5    -0.441568061215E+02   -0.17862E-07   -0.54585E-08   128   0.128E-03    0.274E-04
DAV:   6    -0.441568061262E+02   -0.46939E-08   -0.95202E-09   112   0.604E-04
  11 F= -.44156806E+02 E0= -.44156806E+02  d E =-.122508E-04  mag=    -0.0000
quench:  g(F)=  0.000E+00 g(S)=  0.000E+00 dE (1.order)= 0.000E+00
 bond charge predicted
       N       E                     dE             d eps       ncg     rms          rms(c)
DAV:   1    -0.441568118168E+02   -0.56953E-05   -0.71849E-04    96   0.154E-01    0.878E-03
DAV:   2    -0.441568111111E+02    0.70567E-06   -0.47476E-06    88   0.117E-02    0.524E-03
DAV:   3    -0.441568118406E+02   -0.72944E-06   -0.18123E-06   104   0.672E-03    0.116E-03
DAV:   4    -0.441568117882E+02    0.52424E-07   -0.23027E-07    96   0.263E-03    0.578E-04
DAV:   5    -0.441568118225E+02   -0.34333E-07   -0.63166E-08   108   0.133E-03    0.198E-04
DAV:   6    -0.441568118287E+02   -0.61873E-08   -0.61743E-09   112   0.461E-04
  12 F= -.44156812E+02 E0= -.44156812E+02  d E =-.570247E-05  mag=    -0.0000
quench:  g(F)=  0.000E+00 g(S)=  0.000E+00 dE (1.order)= 0.000E+00
 bond charge predicted
       N       E                     dE             d eps       ncg     rms          rms(c)
DAV:   1    -0.441567978736E+02    0.13949E-04   -0.72420E-04    96   0.155E-01    0.869E-03
DAV:   2    -0.441567973746E+02    0.49900E-06   -0.59178E-06   108   0.140E-02    0.542E-03
DAV:   3    -0.441567979375E+02   -0.56288E-06   -0.26003E-06    96   0.877E-03    0.154E-03
DAV:   4    -0.441567978174E+02    0.12010E-06   -0.46632E-07    96   0.403E-03    0.753E-04
DAV:   5    -0.441567978915E+02   -0.74183E-07   -0.17236E-07   112   0.202E-03    0.320E-04
DAV:   6    -0.441567978895E+02    0.20705E-08   -0.16886E-08   112   0.731E-04
  13 F= -.44156798E+02 E0= -.44156798E+02  d E =0.139392E-04  mag=    -0.0000
quench:  g(F)=  0.000E+00 g(S)=  0.000E+00 dE (1.order)= 0.000E+00
 bond charge predicted
       N       E                     dE             d eps       ncg     rms          rms(c)
DAV:   1    -0.441568176782E+02   -0.19787E-04   -0.74754E-04    96   0.161E-01    0.105E-02
DAV:   2    -0.441568160974E+02    0.15808E-05   -0.11878E-05   104   0.197E-02    0.662E-03
DAV:   3    -0.441568159858E+02    0.11162E-06   -0.60780E-06   112   0.122E-02    0.246E-03
DAV:   4    -0.441568157266E+02    0.25915E-06   -0.92826E-07   112   0.536E-03    0.114E-03
DAV:   5    -0.441568157880E+02   -0.61401E-07   -0.31138E-07   128   0.282E-03    0.336E-04
DAV:   6    -0.441568157997E+02   -0.11711E-07   -0.17611E-08   112   0.779E-04    0.167E-04
DAV:   7    -0.441568158095E+02   -0.97460E-08   -0.51133E-09   112   0.422E-04
  14 F= -.44156816E+02 E0= -.44156816E+02  d E =-.179200E-04  mag=     0.0000
quench:  g(F)=  0.000E+00 g(S)=  0.000E+00 dE (1.order)= 0.000E+00
 bond charge predicted
       N       E                     dE             d eps       ncg     rms          rms(c)
DAV:   1    -0.441568043230E+02    0.11477E-04   -0.74435E-04    96   0.161E-01    0.105E-02
DAV:   2    -0.441568030217E+02    0.13013E-05   -0.70212E-06   104   0.151E-02    0.622E-03
DAV:   3    -0.441568036038E+02   -0.58208E-06   -0.36239E-06    96   0.956E-03    0.171E-03
DAV:   4    -0.441568034701E+02    0.13371E-06   -0.74377E-07   104   0.471E-03    0.810E-04
DAV:   5    -0.441568035751E+02   -0.10499E-06   -0.75841E-08   112   0.161E-03    0.195E-04
DAV:   6    -0.441568035807E+02   -0.56183E-08   -0.43489E-09   112   0.450E-04
  15 F= -.44156804E+02 E0= -.44156804E+02  d E =0.122288E-04  mag=     0.0000
quench:  g(F)=  0.000E+00 g(S)=  0.000E+00 dE (1.order)= 0.000E+00
 bond charge predicted
       N       E                     dE             d eps       ncg     rms          rms(c)
DAV:   1    -0.441568076193E+02   -0.40442E-05   -0.81317E-04    96   0.168E-01    0.140E-02
DAV:   2    -0.441568036115E+02    0.40079E-05   -0.13611E-05    88   0.218E-02    0.796E-03
DAV:   3    -0.441568032307E+02    0.38081E-06   -0.89487E-06   104   0.150E-02    0.286E-03
DAV:   4    -0.441568029668E+02    0.26388E-06   -0.24032E-06   108   0.826E-03    0.149E-03
DAV:   5    -0.441568029267E+02    0.40042E-07   -0.24175E-07    96   0.318E-03    0.264E-04
DAV:   6    -0.441568029416E+02   -0.14914E-07   -0.36200E-08   112   0.107E-03    0.173E-04
DAV:   7    -0.441568029468E+02   -0.51290E-08   -0.56958E-09   112   0.609E-04
  16 F= -.44156803E+02 E0= -.44156803E+02  d E =0.633919E-06  mag=     0.0000
quench:  g(F)=  0.000E+00 g(S)=  0.000E+00 dE (1.order)= 0.000E+00
 bond charge predicted
       N       E                     dE             d eps       ncg     rms          rms(c)
DAV:   1    -0.441568070151E+02   -0.40735E-05   -0.73405E-04    96   0.167E-01    0.100E-02
DAV:   2    -0.441568061530E+02    0.86210E-06   -0.81197E-06    88   0.166E-02    0.631E-03
DAV:   3    -0.441568064038E+02   -0.25074E-06   -0.17323E-06    88   0.816E-03    0.712E-04
DAV:   4    -0.441568064272E+02   -0.23417E-07   -0.31923E-07   104   0.304E-03    0.459E-04
DAV:   5    -0.441568064292E+02   -0.20356E-08   -0.34637E-08    88   0.115E-03
  17 F= -.44156806E+02 E0= -.44156806E+02  d E =-.348244E-05  mag=    -0.0000
quench:  g(F)=  0.000E+00 g(S)=  0.000E+00 dE (1.order)= 0.000E+00
 bond charge predicted
       N       E                     dE             d eps       ncg     rms          rms(c)
DAV:   1    -0.441568046380E+02    0.17892E-05   -0.69643E-04   112   0.137E-01    0.738E-03
DAV:   2    -0.441568043258E+02    0.31223E-06   -0.45143E-06    88   0.945E-03    0.470E-03
DAV:   3    -0.441568047338E+02   -0.40801E-06   -0.88705E-07    88   0.581E-03    0.608E-04
DAV:   4    -0.441568047791E+02   -0.45314E-07   -0.16594E-07   112   0.240E-03    0.523E-04
DAV:   5    -0.441568047429E+02    0.36217E-07   -0.25080E-08    80   0.107E-03    0.230E-04
DAV:   6    -0.441568047565E+02   -0.13586E-07   -0.17145E-08   112   0.914E-04    0.133E-04
DAV:   7    -0.441568047634E+02   -0.69232E-08   -0.37099E-09   112   0.561E-04
  18 F= -.44156805E+02 E0= -.44156805E+02  d E =0.166584E-05  mag=     0.0000
quench:  g(F)=  0.000E+00 g(S)=  0.000E+00 dE (1.order)= 0.000E+00
 bond charge predicted
       N       E                     dE             d eps       ncg     rms          rms(c)
DAV:   1    -0.441568074770E+02   -0.27206E-05   -0.71863E-04   112   0.141E-01    0.832E-03
DAV:   2    -0.441568070080E+02    0.46906E-06   -0.53991E-06   112   0.129E-02    0.522E-03
DAV:   3    -0.441568076667E+02   -0.65875E-06   -0.21813E-06    96   0.793E-03    0.140E-03
DAV:   4    -0.441568075588E+02    0.10789E-06   -0.35658E-07   112   0.347E-03    0.723E-04
DAV:   5    -0.441568076128E+02   -0.53902E-07   -0.16740E-07   112   0.200E-03    0.319E-04
DAV:   6    -0.441568076147E+02   -0.19362E-08   -0.22472E-08   112   0.807E-04
  19 F= -.44156808E+02 E0= -.44156808E+02  d E =-.285131E-05  mag=    -0.0000
quench:  g(F)=  0.000E+00 g(S)=  0.000E+00 dE (1.order)= 0.000E+00
 bond charge predicted
       N       E                     dE             d eps       ncg     rms          rms(c)
DAV:   1    -0.441568024822E+02    0.51305E-05   -0.70874E-04    96   0.162E-01    0.756E-03
DAV:   2    -0.441568022257E+02    0.25655E-06   -0.57297E-06   104   0.131E-02    0.486E-03
DAV:   3    -0.441568027648E+02   -0.53911E-06   -0.14497E-06   112   0.733E-03    0.980E-04
DAV:   4    -0.441568027564E+02    0.83219E-08   -0.26194E-07   112   0.304E-03    0.705E-04
DAV:   5    -0.441568027369E+02    0.19578E-07   -0.12634E-07   112   0.198E-03    0.209E-04
DAV:   6    -0.441568027451E+02   -0.82705E-08   -0.18985E-08   112   0.887E-04
  20 F= -.44156803E+02 E0= -.44156803E+02  d E =0.486955E-05  mag=     0.0000
quench:  g(F)=  0.000E+00 g(S)=  0.000E+00 dE (1.order)= 0.000E+00
 bond charge predicted
       N       E                     dE             d eps       ncg     rms          rms(c)
DAV:   1    -0.441568054245E+02   -0.26877E-05   -0.76127E-04    96   0.163E-01    0.108E-02
DAV:   2    -0.441568039682E+02    0.14563E-05   -0.82993E-06    96   0.170E-02    0.653E-03
DAV:   3    -0.441568046194E+02   -0.65114E-06   -0.53407E-06    96   0.118E-02    0.223E-03
DAV:   4    -0.441568043620E+02    0.25738E-06   -0.11578E-06    88   0.600E-03    0.101E-03
DAV:   5    -0.441568045164E+02   -0.15442E-06   -0.15455E-07   112   0.230E-03    0.222E-04
DAV:   6    -0.441568045302E+02   -0.13827E-07   -0.66357E-09   112   0.608E-04    0.152E-04
DAV:   7    -0.441568045157E+02    0.14573E-07   -0.56504E-09   104   0.517E-04    0.117E-04
DAV:   8    -0.441568045434E+02   -0.27758E-07   -0.18624E-09   112   0.410E-04    0.969E-05
DAV:   9    -0.441568045544E+02   -0.10979E-07   -0.50597E-10    96   0.209E-04    0.865E-05
DAV:  10    -0.441568045666E+02   -0.12204E-07   -0.16103E-11    88   0.123E-04    0.856E-05
DAV:  11    -0.441568045774E+02   -0.10786E-07    0.14842E-10    96   0.673E-05    0.853E-05
DAV:  12    -0.441568045860E+02   -0.86541E-08    0.20504E-10    80   0.517E-05
  21 F= -.44156805E+02 E0= -.44156805E+02  d E =-.184090E-05  mag=    -0.0000
quench:  g(F)=  0.000E+00 g(S)=  0.000E+00 dE (1.order)= 0.000E+00
 bond charge predicted
       N       E                     dE             d eps       ncg     rms          rms(c)
DAV:   1    -0.441568139954E+02   -0.94180E-05   -0.80752E-04    96   0.170E-01    0.138E-02
DAV:   2    -0.441568100389E+02    0.39565E-05   -0.12899E-05    88   0.213E-02    0.785E-03
DAV:   3    -0.441568096876E+02    0.35129E-06   -0.82067E-06   112   0.143E-02    0.273E-03
DAV:   4    -0.441568094680E+02    0.21968E-06   -0.21557E-06    96   0.782E-03    0.145E-03
DAV:   5    -0.441568094408E+02    0.27165E-07   -0.23235E-07   112   0.307E-03    0.264E-04
DAV:   6    -0.441568094504E+02   -0.96334E-08   -0.31113E-08   112   0.881E-04
  22 F= -.44156809E+02 E0= -.44156809E+02  d E =-.486439E-05  mag=     0.0000
quench:  g(F)=  0.000E+00 g(S)=  0.000E+00 dE (1.order)= 0.000E+00
 bond charge predicted
       N       E                     dE             d eps       ncg     rms          rms(c)
DAV:   1    -0.441567987647E+02    0.10676E-04   -0.77515E-04    96   0.169E-01    0.121E-02
DAV:   2    -0.441567965441E+02    0.22206E-05   -0.15661E-05    88   0.238E-02    0.729E-03
DAV:   3    -0.441567974232E+02   -0.87907E-06   -0.12531E-05   104   0.175E-02    0.356E-03
DAV:   4    -0.441567968281E+02    0.59515E-06   -0.21914E-06    96   0.811E-03    0.161E-03
DAV:   5    -0.441567971883E+02   -0.36021E-06   -0.51535E-07   112   0.372E-03    0.324E-04
DAV:   6    -0.441567971827E+02    0.55570E-08   -0.15186E-08   112   0.711E-04
  23 F= -.44156797E+02 E0= -.44156797E+02  d E =0.122677E-04  mag=     0.0000
quench:  g(F)=  0.000E+00 g(S)=  0.000E+00 dE (1.order)= 0.000E+00
 bond charge predicted
       N       E                     dE             d eps       ncg     rms          rms(c)
DAV:   1    -0.441568163865E+02   -0.19198E-04   -0.77198E-04   112   0.147E-01    0.125E-02
DAV:   2    -0.441568130829E+02    0.33036E-05   -0.10145E-05    88   0.185E-02    0.719E-03
DAV:   3    -0.441568130817E+02    0.12049E-08   -0.77227E-06   112   0.142E-02    0.272E-03
DAV:   4    -0.441568127751E+02    0.30654E-06   -0.14166E-06    96   0.649E-03    0.126E-03
DAV:   5    -0.441568128112E+02   -0.36094E-07   -0.25397E-07   104   0.276E-03    0.240E-04
DAV:   6    -0.441568128213E+02   -0.10037E-07   -0.86300E-09   112   0.556E-04    0.164E-04
DAV:   7    -0.441568128276E+02   -0.63163E-08   -0.49471E-09    96   0.401E-04
  24 F= -.44156813E+02 E0= -.44156813E+02  d E =-.156449E-04  mag=     0.0000
quench:  g(F)=  0.000E+00 g(S)=  0.000E+00 dE (1.order)= 0.000E+00
 bond charge predicted
       N       E                     dE             d eps       ncg     rms          rms(c)
DAV:   1    -0.441568019457E+02    0.10876E-04   -0.70475E-04    96   0.141E-01    0.727E-03
DAV:   2    -0.441568017886E+02    0.15716E-06   -0.41182E-06   112   0.107E-02    0.462E-03
DAV:   3    -0.441568022411E+02   -0.45252E-06   -0.76302E-07   112   0.508E-03    0.553E-04
DAV:   4    -0.441568022541E+02   -0.13040E-07   -0.10520E-07   112   0.178E-03    0.431E-04
DAV:   5    -0.441568022483E+02    0.58649E-08   -0.33407E-08    96   0.108E-03
  25 F= -.44156802E+02 E0= -.44156802E+02  d E =0.105793E-04  mag=    -0.0000
quench:  g(F)=  0.000E+00 g(S)=  0.000E+00 dE (1.order)= 0.000E+00
 bond charge predicted
       N       E                     dE             d eps       ncg     rms          rms(c)
DAV:   1    -0.441568200467E+02   -0.17793E-04   -0.71832E-04    96   0.162E-01    0.812E-03
DAV:   2    -0.441568196605E+02    0.38622E-06   -0.40867E-06    96   0.107E-02    0.494E-03
DAV:   3    -0.441568202473E+02   -0.58681E-06   -0.35973E-07   104   0.333E-03    0.294E-04
DAV:   4    -0.441568202651E+02   -0.17773E-07   -0.24232E-08   112   0.886E-04    0.194E-04
DAV:   5    -0.441568202702E+02   -0.51346E-08   -0.60452E-09   112   0.532E-04
  26 F= -.44156820E+02 E0= -.44156820E+02  d E =-.180219E-04  mag=     0.0000
quench:  g(F)=  0.000E+00 g(S)=  0.000E+00 dE (1.order)= 0.000E+00
 bond charge predicted
       N       E                     dE             d eps       ncg     rms          rms(c)
DAV:   1    -0.441568081887E+02    0.12076E-04   -0.72598E-04    96   0.151E-01    0.827E-03
DAV:   2    -0.441568075323E+02    0.65636E-06   -0.46264E-06    96   0.119E-02    0.505E-03
DAV:   3    -0.441568082872E+02   -0.75491E-06   -0.16357E-06    96   0.657E-03    0.112E-03
DAV:   4    -0.441568082274E+02    0.59846E-07   -0.21575E-07   112   0.267E-03    0.578E-04
DAV:   5    -0.441568082443E+02   -0.16901E-07   -0.81205E-08   112   0.148E-03    0.225E-04
DAV:   6    -0.441568082478E+02   -0.35654E-08   -0.11659E-08   112   0.676E-04
  27 F= -.44156808E+02 E0= -.44156808E+02  d E =0.120224E-04  mag=    -0.0000
quench:  g(F)=  0.000E+00 g(S)=  0.000E+00 dE (1.order)= 0.000E+00
 bond charge predicted
       N       E                     dE             d eps       ncg     rms          rms(c)
DAV:   1    -0.441568002719E+02    0.79724E-05   -0.72362E-04    96   0.153E-01    0.889E-03
DAV:   2    -0.441567996850E+02    0.58690E-06   -0.65445E-06   112   0.146E-02    0.559E-03
DAV:   3    -0.441568002639E+02   -0.57896E-06   -0.30348E-06    88   0.958E-03    0.171E-03
DAV:   4    -0.441568001237E+02    0.14018E-06   -0.58573E-07    96   0.459E-03    0.826E-04
DAV:   5    -0.441568002063E+02   -0.82600E-07   -0.20730E-07   112   0.232E-03    0.333E-04
DAV:   6    -0.441568002152E+02   -0.88395E-08   -0.20167E-08   112   0.100E-03
  28 F= -.44156800E+02 E0= -.44156800E+02  d E =0.803266E-05  mag=    -0.0000
quench:  g(F)=  0.000E+00 g(S)=  0.000E+00 dE (1.order)= 0.000E+00
--------------------------------------------------------
>>>  Job finished at Wed Jul  6 12:22:32 EDT 2022
