 vasp.5.4.4.18Apr17-6-g9f103f2a35 (build Dec 31 2018 11:41:54) complex          
  
 executed on             LinuxIFC date 2022.07.06  12:11:28
 running on   16 total cores
 distrk:  each k-point on   16 cores,    1 groups
 distr:  one band on NCORES_PER_BAND=   4 cores,    4 groups


--------------------------------------------------------------------------------------------------------


 INCAR:
 POTCAR:    PAW_PBE S 17Jan2003                   
 POTCAR:   PAW_PBE C 08Apr2002                    
 POTCAR:   PAW_PBE H 15Jun2001                    
 POTCAR:    PAW_PBE S 17Jan2003                   
   VRHFIN =S : s2p4                                                             
   LEXCH  = PE                                                                  
   EATOM  =   276.8230 eV,   20.3459 Ry                                         
                                                                                
   TITEL  = PAW_PBE S 17Jan2003                                                 
   LULTRA =        F    use ultrasoft PP ?                                      
   IUNSCR =        1    unscreen: 0-lin 1-nonlin 2-no                           
   RPACOR =    1.500    partial core radius                                     
   POMASS =   32.066; ZVAL   =    6.000    mass and valenz                      
   RCORE  =    1.900    outmost cutoff radius                                   
   RWIGS  =    2.200; RWIGS  =    1.164    wigner-seitz radius (au A)           
   ENMAX  =  280.000; ENMIN  =  194.016 eV                                      
   ICORE  =        2    local potential                                         
   LCOR   =        T    correct aug charges                                     
   LPAW   =        T    paw PP                                                  
   EAUG   =  335.092                                                            
   DEXC   =     .000                                                            
   RMAX   =    2.867    core radius for proj-oper                               
   RAUG   =    1.300    factor for augmentation sphere                          
   RDEP   =    1.954    radius for radial grids                                 
   QCUT   =   -4.360; QGAM   =    8.721    optimization parameters              
                                                                                
   Description                                                                  
     l     E      TYP  RCUT    TYP  RCUT                                        
     0   .000     23  1.900                                                     
     0   .000     23  1.900                                                     
     1   .000     23  1.900                                                     
     1   .000     23  1.900                                                     
     2   .000     23  1.900                                                     
  local pseudopotential read in
  partial core-charges read in
  atomic valenz-charges read in
  non local Contribution for L=           0  read in
    real space projection operators read in
  non local Contribution for L=           0  read in
    real space projection operators read in
  non local Contribution for L=           1  read in
    real space projection operators read in
  non local Contribution for L=           1  read in
    real space projection operators read in
    PAW grid and wavefunctions read in
 
   number of l-projection  operators is LMAX  =           4
   number of lm-projection operators is LMMAX =           8
 
 POTCAR:   PAW_PBE C 08Apr2002                    
   VRHFIN =C: s2p2                                                              
   LEXCH  = PE                                                                  
   EATOM  =   147.1560 eV,   10.8157 Ry                                         
                                                                                
   TITEL  = PAW_PBE C 08Apr2002                                                 
   LULTRA =        F    use ultrasoft PP ?                                      
   IUNSCR =        0    unscreen: 0-lin 1-nonlin 2-no                           
   RPACOR =     .000    partial core radius                                     
   POMASS =   12.011; ZVAL   =    4.000    mass and valenz                      
   RCORE  =    1.500    outmost cutoff radius                                   
   RWIGS  =    1.630; RWIGS  =     .863    wigner-seitz radius (au A)           
   ENMAX  =  400.000; ENMIN  =  300.000 eV                                      
   ICORE  =        2    local potential                                         
   LCOR   =        T    correct aug charges                                     
   LPAW   =        T    paw PP                                                  
   EAUG   =  644.873                                                            
   DEXC   =     .000                                                            
   RMAX   =    2.266    core radius for proj-oper                               
   RAUG   =    1.300    factor for augmentation sphere                          
   RDEP   =    1.501    radius for radial grids                                 
   RDEPT  =    1.300    core radius for aug-charge                              
   QCUT   =   -5.516; QGAM   =   11.032    optimization parameters              
                                                                                
   Description                                                                  
     l     E      TYP  RCUT    TYP  RCUT                                        
     0   .000     23  1.200                                                     
     0   .000     23  1.200                                                     
     1   .000     23  1.500                                                     
     1  2.500     23  1.500                                                     
     2   .000      7  1.500                                                     
  local pseudopotential read in
  atomic valenz-charges read in
  non local Contribution for L=           0  read in
    real space projection operators read in
  non local Contribution for L=           0  read in
    real space projection operators read in
  non local Contribution for L=           1  read in
    real space projection operators read in
  non local Contribution for L=           1  read in
    real space projection operators read in
    PAW grid and wavefunctions read in
 
   number of l-projection  operators is LMAX  =           4
   number of lm-projection operators is LMMAX =           8
 
 POTCAR:   PAW_PBE H 15Jun2001                    
   VRHFIN =H: ultrasoft test                                                    
   LEXCH  = PE                                                                  
   EATOM  =    12.4884 eV,     .9179 Ry                                         
                                                                                
   TITEL  = PAW_PBE H 15Jun2001                                                 
   LULTRA =        F    use ultrasoft PP ?                                      
   IUNSCR =        0    unscreen: 0-lin 1-nonlin 2-no                           
   RPACOR =     .000    partial core radius                                     
   POMASS =    1.000; ZVAL   =    1.000    mass and valenz                      
   RCORE  =    1.100    outmost cutoff radius                                   
   RWIGS  =     .700; RWIGS  =     .370    wigner-seitz radius (au A)           
   ENMAX  =  250.000; ENMIN  =  200.000 eV                                      
   RCLOC  =     .701    cutoff for local pot                                    
   LCOR   =        T    correct aug charges                                     
   LPAW   =        T    paw PP                                                  
   EAUG   =  400.000                                                            
   RMAX   =    2.174    core radius for proj-oper                               
   RAUG   =    1.200    factor for augmentation sphere                          
   RDEP   =    1.112    radius for radial grids                                 
   QCUT   =   -5.749; QGAM   =   11.498    optimization parameters              
                                                                                
   Description                                                                  
     l     E      TYP  RCUT    TYP  RCUT                                        
     0   .000     23  1.100                                                     
     0   .500     23  1.100                                                     
     1  -.300     23  1.100                                                     
  local pseudopotential read in
  atomic valenz-charges read in
  non local Contribution for L=           0  read in
    real space projection operators read in
  non local Contribution for L=           0  read in
    real space projection operators read in
  non local Contribution for L=           1  read in
    real space projection operators read in
    PAW grid and wavefunctions read in
 
   number of l-projection  operators is LMAX  =           3
   number of lm-projection operators is LMMAX =           5
 
 Optimization of the real space projectors (new method)

 maximal supplied QI-value         = 19.84
 optimisation between [QCUT,QGAM] = [ 10.12, 20.44] = [ 28.68,116.96] Ry 
 Optimized for a Real-space Cutoff    1.42 Angstroem

   l    n(q)    QCUT    max X(q) W(low)/X(q) W(high)/X(q)  e(spline) 
   0      9    10.119     5.487    0.15E-04    0.47E-05    0.66E-08
   0      9    10.119    85.627    0.51E-04    0.92E-04    0.63E-07
   1      8    10.119     3.530    0.37E-05    0.76E-05    0.28E-07
   1      8    10.119    42.714    0.16E-03    0.16E-03    0.23E-06
 Optimization of the real space projectors (new method)

 maximal supplied QI-value         = 25.13
 optimisation between [QCUT,QGAM] = [ 10.05, 20.36] = [ 28.30,116.06] Ry 
 Optimized for a Real-space Cutoff    1.38 Angstroem

   l    n(q)    QCUT    max X(q) W(low)/X(q) W(high)/X(q)  e(spline) 
   0      8    10.053     5.582    0.33E-04    0.15E-04    0.75E-07
   0      8    10.053    69.432    0.23E-03    0.38E-03    0.25E-06
   1      8    10.053     2.780    0.76E-04    0.11E-03    0.15E-06
   1      8    10.053     4.549    0.19E-03    0.19E-03    0.27E-06
 Optimization of the real space projectors (new method)

 maximal supplied QI-value         = 34.20
 optimisation between [QCUT,QGAM] = [  9.92, 20.18] = [ 27.55,114.04] Ry 
 Optimized for a Real-space Cutoff    1.34 Angstroem

   l    n(q)    QCUT    max X(q) W(low)/X(q) W(high)/X(q)  e(spline) 
   0      8     9.919     4.436    0.31E-04    0.59E-04    0.66E-07
   0      8     9.919    16.131    0.16E-03    0.20E-03    0.35E-06
   1      8     9.919     4.654    0.19E-03    0.46E-03    0.40E-06
  PAW_PBE S 17Jan2003                   :
 energy of atom  1       EATOM= -276.8230
 kinetic energy error for atom=    0.0046 (will be added to EATOM!!)
 PAW_PBE C 08Apr2002                    :
 energy of atom  2       EATOM= -147.1560
 kinetic energy error for atom=    0.0288 (will be added to EATOM!!)
 PAW_PBE H 15Jun2001                    :
 energy of atom  3       EATOM=  -12.4884
 kinetic energy error for atom=    0.0098 (will be added to EATOM!!)
 
 
 POSCAR: O  C                                    
  positions in direct lattice
  velocities in cartesian coordinates
 exchange correlation table for  LEXCH =        8
   RHO(1)=    0.500       N(1)  =     2000
   RHO(2)=  100.500       N(2)  =     4000

 VTST: version 3.2, (02/03/18)

 CHAIN: initializing optimizer
 
 OPT: Using VASP Quick-Min optimizer
 CHAIN: Read ICHAIN            1
 
 POSCAR: O  C                                    
  positions in direct lattice
  velocities in cartesian coordinates
 CHAIN: Running the Dynamical Matrix
 


--------------------------------------------------------------------------------------------------------


 ion  position               nearest neighbor table
   1  0.763  0.490  0.679-   2 1.81   3 1.81
   2  0.856  0.433  0.670-   6 1.10   4 1.10   5 1.10   1 1.81
   3  0.630  0.365  0.654-   8 1.10   9 1.10   7 1.10   1 1.81
   4  0.856  0.402  0.601-   2 1.10
   5  0.834  0.364  0.719-   2 1.10
   6  0.942  0.502  0.685-   2 1.10
   7  0.614  0.296  0.700-   3 1.10
   8  0.564  0.387  0.662-   3 1.10
   9  0.628  0.337  0.583-   3 1.10
 
  LATTYP: Found a hexagonal cell.
 ALAT       =    13.6750001907
 C/A-ratio  =     1.0798537472
  
  Lattice vectors:
  
 A1 = (  13.6750001907,   0.0000000000,   0.0000000000)
 A2 = (  -6.8375000954,  11.8428975619,   0.0000000000)
 A3 = (   0.0000000000,   0.0000000000,  14.7670001984)


Analysis of symmetry for initial positions (statically):
=====================================================================
 Subroutine PRICEL returns:
 Original cell was already a primitive cell.
 

 Routine SETGRP: Setting up the symmetry group for a 
 hexagonal supercell.


 Subroutine GETGRP returns: Found  1 space group operations
 (whereof  1 operations were pure point group operations)
 out of a pool of 24 trial point group operations.


The static configuration has the point symmetry C_1 .


Analysis of symmetry for dynamics (positions and initial velocities):
=====================================================================
 Subroutine PRICEL returns:
 Original cell was already a primitive cell.
 

 Routine SETGRP: Setting up the symmetry group for a 
 hexagonal supercell.


 Subroutine GETGRP returns: Found  1 space group operations
 (whereof  1 operations were pure point group operations)
 out of a pool of 24 trial point group operations.


The dynamic configuration has the point symmetry C_1 .


Analysis of structural, dynamic, and magnetic symmetry:
=====================================================================
 Subroutine PRICEL returns:
 Original cell was already a primitive cell.
 

 Routine SETGRP: Setting up the symmetry group for a 
 hexagonal supercell.


 Subroutine GETGRP returns: Found  1 space group operations
 (whereof  1 operations were pure point group operations)
 out of a pool of 24 trial point group operations.


The magnetic configuration has the point symmetry C_1 .


 Subroutine INISYM returns: Found  1 space group operations
 (whereof  1 operations are pure point group operations),
 and found     1 'primitive' translations

 
 
 KPOINTS: Gamma points only                       
  k-points in reciprocal lattice
Space group operators:
 irot       det(A)        alpha          n_x          n_y          n_z        tau_x        tau_y        tau_z
    1     1.000000     0.000000     1.000000     0.000000     0.000000     0.000000     0.000000     0.000000


--------------------------------------------------------------------------------------------------------




 Dimension of arrays:
   k-points           NKPTS =      1   k-points in BZ     NKDIM =      1   number of bands    NBANDS=     20
   number of dos      NEDOS =    301   number of ions     NIONS =      9
   non local maximal  LDIM  =      4   non local SUM 2l+1 LMDIM =      8
   total plane-waves  NPLWV = 777600
   max r-space proj   IRMAX =   3965   max aug-charges    IRDMAX=  82140
   dimension x,y,z NGX =    90 NGY =   90 NGZ =   96
   dimension x,y,z NGXF=   180 NGYF=  180 NGZF=  192
   support grid    NGXF=   360 NGYF=  360 NGZF=  384
   ions per type =               1   2   6
   NGX,Y,Z   is equivalent  to a cutoff of  10.94, 10.94, 10.81 a.u.
   NGXF,Y,Z  is equivalent  to a cutoff of  21.88, 21.88, 21.62 a.u.

 SYSTEM =  zeolite                                 
 POSCAR =  O  C                                    

 Startparameter for this run:
   NWRITE =      2    write-flag & timer
   PREC   = acc       normal or accurate (medium, high low for compatibility)
   ISTART =      0    job   : 0-new  1-cont  2-samecut
   ICHARG =      2    charge: 1-file 2-atom 10-const
   ISPIN  =      2    spin polarized calculation?
   LNONCOLLINEAR =      F non collinear calculations
   LSORBIT =      F    spin-orbit coupling
   INIWAV =      1    electr: 0-lowe 1-rand  2-diag
   LASPH  =      F    aspherical Exc in radial PAW
   METAGGA=      F    non-selfconsistent MetaGGA calc.

 Electronic Relaxation 1
   ENCUT  =  400.0 eV  29.40 Ry    5.42 a.u.  22.30 22.30 24.08*2*pi/ulx,y,z
   ENINI  =  400.0     initial cutoff
   ENAUG  =  644.9 eV  augmentation charge cutoff
   NELM   =    100;   NELMIN=  2; NELMDL= -5     # of ELM steps 
   EDIFF  = 0.1E-07   stopping-criterion for ELM
   LREAL  =      T    real-space projection
   NLSPLINE    = F    spline interpolate recip. space projectors
   LCOMPAT=      F    compatible to vasp.4.4
   GGA_COMPAT  = T    GGA compatible to vasp.4.4-vasp.4.6
   LMAXPAW     = -100 max onsite density
   LMAXMIX     =    2 max onsite mixed and CHGCAR
   VOSKOWN=      0    Vosko Wilk Nusair interpolation
   ROPT   =   -0.00025  -0.00025  -0.00025
 Ionic relaxation
   EDIFFG = -.1E-07   stopping-criterion for IOM
   NSW    =     28    number of steps for IOM
   NBLOCK =      1;   KBLOCK =     28    inner block; outer block 
   IBRION =      3    ionic relax: 0-MD 1-quasi-New 2-CG
   NFREE  =      0    steps in history (QN), initial steepest desc. (CG)
   ISIF   =      2    stress and relaxation
   IWAVPR =     11    prediction:  0-non 1-charg 2-wave 3-comb
   ISYM   =      2    0-nonsym 1-usesym 2-fastsym
   LCORR  =      T    Harris-Foulkes like correction to forces

   POTIM  = 0.0000    time-step for ionic-motion
   TEIN   =    0.0    initial temperature
   TEBEG  =    0.0;   TEEND  =   0.0 temperature during run
   SMASS  =  -3.00    Nose mass-parameter (am)
   estimated Nose-frequenzy (Omega)   =  0.10E-29 period in steps =  0.00 mass=  -0.427E-26a.u.
   SCALEE = 1.0000    scale energy and forces
   NPACO  =    256;   APACO  = 16.0  distance and # of slots for P.C.
   PSTRESS=    0.0 pullay stress

  Mass of Ions in am
   POMASS =  32.07 12.01  1.00
  Ionic Valenz
   ZVAL   =   6.00  4.00  1.00
  Atomic Wigner-Seitz radii
   RWIGS  =  -1.00 -1.00 -1.00
  virtual crystal weights 
   VCA    =   1.00  1.00  1.00
   NELECT =      20.0000    total number of electrons
   NUPDOWN=      -1.0000    fix difference up-down

 DOS related values:
   EMIN   =  10.00;   EMAX   =-10.00  energy-range for DOS
   EFERMI =   0.00
   ISMEAR =     0;   SIGMA  =   0.05  broadening in eV -4-tet -1-fermi 0-gaus

 Electronic relaxation 2 (details)
   IALGO  =     38    algorithm
   LDIAG  =      T    sub-space diagonalisation (order eigenvalues)
   LSUBROT=      F    optimize rotation matrix (better conditioning)
   TURBO    =      0    0=normal 1=particle mesh
   IRESTART =      0    0=no restart 2=restart with 2 vectors
   NREBOOT  =      0    no. of reboots
   NMIN     =      0    reboot dimension
   EREF     =   0.00    reference energy to select bands
   IMIX   =      4    mixing-type and parameters
     AMIX     =   0.40;   BMIX     =  1.00
     AMIX_MAG =   1.60;   BMIX_MAG =  1.00
     AMIN     =   0.10
     WC   =   100.;   INIMIX=   1;  MIXPRE=   1;  MAXMIX= -45

 Intra band minimization:
   WEIMIN = 0.0010     energy-eigenvalue tresh-hold
   EBREAK =  0.13E-10  absolut break condition
   DEPER  =   0.30     relativ break condition  

   TIME   =   0.40     timestep for ELM

  volume/ion in A,a.u.               =     265.73      1793.21
  Fermi-wavevector in a.u.,A,eV,Ry     =   0.332296  0.627949  1.502367  0.110421
  Thomas-Fermi vector in A             =   1.229183
 
 Write flags
   LWAVE        =      F    write WAVECAR
   LDOWNSAMPLE  =      F    k-point downsampling of WAVECAR
   LCHARG       =      F    write CHGCAR
   LVTOT        =      F    write LOCPOT, total local potential
   LVHAR        =      F    write LOCPOT, Hartree potential only
   LELF         =      F    write electronic localiz. function (ELF)
   LORBIT       =     11    0 simple, 1 ext, 2 COOP (PROOUT), +10 PAW based schemes


 Dipole corrections
   LMONO  =      F    monopole corrections only (constant potential shift)
   LDIPOL =      F    correct potential (dipole corrections)
   IDIPOL =      0    1-x, 2-y, 3-z, 4-all directions 
   EPSILON=  1.0000000 bulk dielectric constant

 Exchange correlation treatment:
   GGA     =    --    GGA type
   LEXCH   =     8    internal setting for exchange type
   VOSKOWN=      0    Vosko Wilk Nusair interpolation
   LHFCALC =     F    Hartree Fock is set to
   LHFONE  =     F    Hartree Fock one center treatment
   AEXX    =    0.0000 exact exchange contribution

 Linear response parameters
   LEPSILON=     F    determine dielectric tensor
   LRPA    =     F    only Hartree local field effects (RPA)
   LNABLA  =     F    use nabla operator in PAW spheres
   LVEL    =     F    velocity operator in full k-point grid
   LINTERFAST=   F  fast interpolation
   KINTER  =     0    interpolate to denser k-point grid
   CSHIFT  =0.1000    complex shift for real part using Kramers Kronig
   OMEGAMAX=  -1.0    maximum frequency
   DEG_THRESHOLD= 0.2000000E-02 threshold for treating states as degnerate
   RTIME   =   -0.100 relaxation time in fs
  (WPLASMAI=    0.000 imaginary part of plasma frequency in eV, 0.658/RTIME)
   DFIELD  = 0.0000000 0.0000000 0.0000000 field for delta impulse in time
 
 Orbital magnetization related:
   ORBITALMAG=     F  switch on orbital magnetization
   LCHIMAG   =     F  perturbation theory with respect to B field
   DQ        =  0.001000  dq finite difference perturbation B field
   LLRAUG    =     F  two centre corrections for induced B field



--------------------------------------------------------------------------------------------------------


 quickmin algorithm: (dynamic with friction)
 charge density and potential will be updated during run
 spin polarized calculation
 Variant of blocked Davidson
 Davidson routine will perform the subspace rotation
 perform sub-space diagonalisation
    after iterative eigenvector-optimisation
 modified Broyden-mixing scheme, WC =      100.0
 initial mixing is a Kerker type mixing with AMIX =  0.4000 and BMIX =      1.0000
 Hartree-type preconditioning will be used
 using additional bands           10
 real space projection scheme for non local part
 use partial core corrections
 calculate Harris-corrections to forces 
   (improved forces if not selfconsistent)
 use gradient corrections 
 use of overlap-Matrix (Vanderbilt PP)
 Gauss-broadening in eV      SIGMA  =   0.05


--------------------------------------------------------------------------------------------------------


  energy-cutoff  :      400.00
  volume of cell :     2391.54
      direct lattice vectors                 reciprocal lattice vectors
    13.675000191  0.000000000  0.000000000     0.073126142  0.042219398  0.000000000
    -6.837500095 11.842897562  0.000000000     0.000000000  0.084438795  0.000000000
     0.000000000  0.000000000 14.767000198     0.000000000  0.000000000  0.067718561

  length of vectors
    13.675000191 13.675000191 14.767000198     0.084438795  0.084438795  0.067718561


 
 k-points in units of 2pi/SCALE and weight: Gamma points only                       
   0.00000000  0.00000000  0.00000000       1.000
 
 k-points in reciprocal lattice and weights: Gamma points only                       
   0.00000000  0.00000000  0.00000000       1.000
 
 position of ions in fractional coordinates (direct lattice) 
   0.76308442  0.49010620  0.67899156
   0.85635991  0.43274342  0.66989462
   0.63021100  0.36499403  0.65353477
   0.85593670  0.40175364  0.60106701
   0.83351813  0.36418278  0.71903994
   0.94191591  0.50163388  0.68538240
   0.61375942  0.29596167  0.70049479
   0.56383762  0.38709937  0.66231550
   0.62770692  0.33685908  0.58335207
 
 position of ions in cartesian coordinates  (Angst):
   7.08407835  5.80427750 10.02666846
   8.75183873  5.12493601  9.89233401
   6.12248881  4.32258694  9.65074810
   8.95794392  4.75792719  8.87595660
   8.90826075  4.31297939 10.61806299
   9.45077856  5.94079869 10.12104203
   6.36952226  3.50504369 10.34420663
   5.06368764  4.58437815  9.78041313
   6.28061821  3.98938761  8.61436011
 


--------------------------------------------------------------------------------------------------------


 k-point  1 :   0.0000 0.0000 0.0000  plane waves:   43405

 maximum and minimum number of plane-waves per node :     10852    10850

 maximum number of plane-waves:     43405
 maximum index in each direction: 
   IXMAX=   22   IYMAX=   22   IZMAX=   24
   IXMIN=  -22   IYMIN=  -22   IZMIN=  -24


 real space projection operators:
  total allocation   :       1418.84 KBytes
  max/ min on nodes  :        360.30        349.57


 parallel 3D FFT for wavefunctions:
    minimum data exchange during FFTs selected (reduces bandwidth)
 parallel 3D FFT for charge:
    minimum data exchange during FFTs selected (reduces bandwidth)


 total amount of memory used by VASP MPI-rank0   149564. kBytes
=======================================================================

   base      :      30000. kBytes
   nonlr-proj:       1043. kBytes
   fftplans  :      63994. kBytes
   grid      :      52770. kBytes
   one-center:         18. kBytes
   wavefun   :       1739. kBytes
 
     INWAV:  cpu time    0.0000: real time    0.0001
 Broyden mixing: mesh for mixing (old mesh)
   NGX = 45   NGY = 45   NGZ = 49
  (NGX  =180   NGY  =180   NGZ  =192)
  gives a total of  99225 points

 initial charge density was supplied:
 charge density of overlapping atoms calculated
 number of electron      20.0000000 magnetization       9.0000000
 keeping initial charge density in first step


--------------------------------------------------------------------------------------------------------


 Maximum index for non-local projection operator          954
 Maximum index for augmentation-charges         4849 (set IRDMAX)


--------------------------------------------------------------------------------------------------------


 First call to EWALD:  gamma=   0.133
 Maximum number of real-space cells 3x 3x 3
 Maximum number of reciprocal cells 3x 3x 3

    FEWALD:  cpu time    0.0014: real time    0.0014


--------------------------------------- Iteration      1(   1)  ---------------------------------------


    POTLOK:  cpu time    0.5393: real time    0.5604
    SETDIJ:  cpu time    0.2708: real time    0.2714
     EDDAV:  cpu time    0.5545: real time    0.5559
       DOS:  cpu time    0.0002: real time    0.0002
    --------------------------------------------
      LOOP:  cpu time    1.3647: real time    1.3879

 eigenvalue-minimisations  :   112
 total energy-change (2. order) : 0.8673323E+02  (-0.4610163E+03)
 number of electron      20.0000000 magnetization       9.0000000
 augmentation part       20.0000000 magnetization       9.0000000

 Free energy of the ion-electron system (eV)
  ---------------------------------------------------
  alpha Z        PSCENC =         0.67333139
  Ewald energy   TEWEN  =       591.37649612
  -Hartree energ DENC   =     -1037.65673576
  -exchange      EXHF   =         0.00000000
  -V(xc)+E(xc)   XCENC  =        55.58670617
  PAW double counting   =       177.71553757     -176.84937462
  entropy T*S    EENTRO =        -0.02383360
  eigenvalues    EBANDS =      -170.03354570
  atomic energy  EATOM  =       645.94464650
  Solvation  Ediel_sol  =         0.00000000
  ---------------------------------------------------
  free energy    TOTEN  =        86.73322808 eV

  energy without entropy =       86.75706168  energy(sigma->0) =       86.74514488


--------------------------------------------------------------------------------------------------------




--------------------------------------- Iteration      1(   2)  ---------------------------------------


     EDDAV:  cpu time    0.6410: real time    0.6494
       DOS:  cpu time    0.0001: real time    0.0001
    --------------------------------------------
      LOOP:  cpu time    0.6411: real time    0.6495

 eigenvalue-minimisations  :   136
 total energy-change (2. order) :-0.9855822E+02  (-0.9681002E+02)
 number of electron      20.0000000 magnetization       9.0000000
 augmentation part       20.0000000 magnetization       9.0000000

 Free energy of the ion-electron system (eV)
  ---------------------------------------------------
  alpha Z        PSCENC =         0.67333139
  Ewald energy   TEWEN  =       591.37649612
  -Hartree energ DENC   =     -1037.65673576
  -exchange      EXHF   =         0.00000000
  -V(xc)+E(xc)   XCENC  =        55.58670617
  PAW double counting   =       177.71553757     -176.84937462
  entropy T*S    EENTRO =        -0.00000000
  eigenvalues    EBANDS =      -268.61559839
  atomic energy  EATOM  =       645.94464650
  Solvation  Ediel_sol  =         0.00000000
  ---------------------------------------------------
  free energy    TOTEN  =       -11.82499102 eV

  energy without entropy =      -11.82499102  energy(sigma->0) =      -11.82499102


--------------------------------------------------------------------------------------------------------




--------------------------------------- Iteration      1(   3)  ---------------------------------------


     EDDAV:  cpu time    0.4816: real time    0.4829
       DOS:  cpu time    0.0001: real time    0.0001
    --------------------------------------------
      LOOP:  cpu time    0.4817: real time    0.4830

 eigenvalue-minimisations  :    96
 total energy-change (2. order) :-0.2389907E+02  (-0.2386150E+02)
 number of electron      20.0000000 magnetization       9.0000000
 augmentation part       20.0000000 magnetization       9.0000000

 Free energy of the ion-electron system (eV)
  ---------------------------------------------------
  alpha Z        PSCENC =         0.67333139
  Ewald energy   TEWEN  =       591.37649612
  -Hartree energ DENC   =     -1037.65673576
  -exchange      EXHF   =         0.00000000
  -V(xc)+E(xc)   XCENC  =        55.58670617
  PAW double counting   =       177.71553757     -176.84937462
  entropy T*S    EENTRO =        -0.00000000
  eigenvalues    EBANDS =      -292.51467253
  atomic energy  EATOM  =       645.94464650
  Solvation  Ediel_sol  =         0.00000000
  ---------------------------------------------------
  free energy    TOTEN  =       -35.72406515 eV

  energy without entropy =      -35.72406515  energy(sigma->0) =      -35.72406515


--------------------------------------------------------------------------------------------------------




--------------------------------------- Iteration      1(   4)  ---------------------------------------


     EDDAV:  cpu time    0.6296: real time    0.6313
       DOS:  cpu time    0.0001: real time    0.0001
    --------------------------------------------
      LOOP:  cpu time    0.6297: real time    0.6314

 eigenvalue-minimisations  :   128
 total energy-change (2. order) :-0.1488958E+01  (-0.1481214E+01)
 number of electron      20.0000000 magnetization       9.0000000
 augmentation part       20.0000000 magnetization       9.0000000

 Free energy of the ion-electron system (eV)
  ---------------------------------------------------
  alpha Z        PSCENC =         0.67333139
  Ewald energy   TEWEN  =       591.37649612
  -Hartree energ DENC   =     -1037.65673576
  -exchange      EXHF   =         0.00000000
  -V(xc)+E(xc)   XCENC  =        55.58670617
  PAW double counting   =       177.71553757     -176.84937462
  entropy T*S    EENTRO =        -0.00000000
  eigenvalues    EBANDS =      -294.00363018
  atomic energy  EATOM  =       645.94464650
  Solvation  Ediel_sol  =         0.00000000
  ---------------------------------------------------
  free energy    TOTEN  =       -37.21302281 eV

  energy without entropy =      -37.21302281  energy(sigma->0) =      -37.21302281


--------------------------------------------------------------------------------------------------------




--------------------------------------- Iteration      1(   5)  ---------------------------------------


     EDDAV:  cpu time    0.5002: real time    0.5016
       DOS:  cpu time    0.0001: real time    0.0001
    CHARGE:  cpu time    0.3241: real time    0.3249
    MIXING:  cpu time    0.0105: real time    0.0106
    --------------------------------------------
      LOOP:  cpu time    0.8350: real time    0.8372

 eigenvalue-minimisations  :   100
 total energy-change (2. order) :-0.2168530E-01  (-0.2167480E-01)
 number of electron      20.0000000 magnetization       6.7926410
 augmentation part       -0.4449027 magnetization       6.8032264

 Broyden mixing:
  rms(total) = 0.18784E+01    rms(broyden)= 0.18781E+01
  rms(prec ) = 0.20428E+01
  weight for this iteration     100.00

 Free energy of the ion-electron system (eV)
  ---------------------------------------------------
  alpha Z        PSCENC =         0.67333139
  Ewald energy   TEWEN  =       591.37649612
  -Hartree energ DENC   =     -1037.65673576
  -exchange      EXHF   =         0.00000000
  -V(xc)+E(xc)   XCENC  =        55.58670617
  PAW double counting   =       177.71553757     -176.84937462
  entropy T*S    EENTRO =        -0.00000000
  eigenvalues    EBANDS =      -294.02531549
  atomic energy  EATOM  =       645.94464650
  Solvation  Ediel_sol  =         0.00000000
  ---------------------------------------------------
  free energy    TOTEN  =       -37.23470811 eV

  energy without entropy =      -37.23470811  energy(sigma->0) =      -37.23470811


--------------------------------------------------------------------------------------------------------




--------------------------------------- Iteration      1(   6)  ---------------------------------------


    POTLOK:  cpu time    0.5305: real time    0.5319
    SETDIJ:  cpu time    0.2690: real time    0.2696
     EDDAV:  cpu time    0.4998: real time    0.5010
       DOS:  cpu time    0.0001: real time    0.0001
    CHARGE:  cpu time    0.3199: real time    0.3207
    MIXING:  cpu time    0.0112: real time    0.0112
    --------------------------------------------
      LOOP:  cpu time    1.6305: real time    1.6346

 eigenvalue-minimisations  :   100
 total energy-change (2. order) : 0.2190107E+02  (-0.6515690E+01)
 number of electron      20.0000000 magnetization       5.0840019
 augmentation part       -0.4928879 magnetization       5.0910645

 Broyden mixing:
  rms(total) = 0.81326E+00    rms(broyden)= 0.81287E+00
  rms(prec ) = 0.89677E+00
  weight for this iteration     100.00

 eigenvalues of (default mixing * dielectric matrix)
  average eigenvalue GAMMA=   0.9268
  0.9268

 Free energy of the ion-electron system (eV)
  ---------------------------------------------------
  alpha Z        PSCENC =         0.67333139
  Ewald energy   TEWEN  =       591.37649612
  -Hartree energ DENC   =     -1074.93879007
  -exchange      EXHF   =         0.00000000
  -V(xc)+E(xc)   XCENC  =        78.71765556
  PAW double counting   =       234.42735795     -233.99542992
  entropy T*S    EENTRO =        -0.00000000
  eigenvalues    EBANDS =      -257.53890233
  atomic energy  EATOM  =       645.94464650
  Solvation  Ediel_sol  =         0.00000000
  ---------------------------------------------------
  free energy    TOTEN  =       -15.33363480 eV

  energy without entropy =      -15.33363480  energy(sigma->0) =      -15.33363480


--------------------------------------------------------------------------------------------------------




--------------------------------------- Iteration      1(   7)  ---------------------------------------


    POTLOK:  cpu time    0.5137: real time    0.5151
    SETDIJ:  cpu time    0.2675: real time    0.2682
     EDDAV:  cpu time    0.5151: real time    0.5163
       DOS:  cpu time    0.0001: real time    0.0001
    CHARGE:  cpu time    0.3187: real time    0.3194
    MIXING:  cpu time    0.0125: real time    0.0126
    --------------------------------------------
      LOOP:  cpu time    1.6276: real time    1.6317

 eigenvalue-minimisations  :   104
 total energy-change (2. order) :-0.1619239E+02  (-0.1459774E+01)
 number of electron      20.0000000 magnetization       3.5655327
 augmentation part       -0.5163964 magnetization       3.5738055

 Broyden mixing:
  rms(total) = 0.46497E+00    rms(broyden)= 0.46488E+00
  rms(prec ) = 0.50717E+00
  weight for this iteration     100.00

 eigenvalues of (default mixing * dielectric matrix)
  average eigenvalue GAMMA=   0.9973
  0.9973  0.9973

 Free energy of the ion-electron system (eV)
  ---------------------------------------------------
  alpha Z        PSCENC =         0.67333139
  Ewald energy   TEWEN  =       591.37649612
  -Hartree energ DENC   =     -1094.89270788
  -exchange      EXHF   =         0.00000000
  -V(xc)+E(xc)   XCENC  =        66.89492827
  PAW double counting   =       263.71733182     -263.48922451
  entropy T*S    EENTRO =        -0.00000000
  eigenvalues    EBANDS =      -241.75083139
  atomic energy  EATOM  =       645.94464650
  Solvation  Ediel_sol  =         0.00000000
  ---------------------------------------------------
  free energy    TOTEN  =       -31.52602969 eV

  energy without entropy =      -31.52602969  energy(sigma->0) =      -31.52602969


--------------------------------------------------------------------------------------------------------




--------------------------------------- Iteration      1(   8)  ---------------------------------------


    POTLOK:  cpu time    0.5187: real time    0.5200
    SETDIJ:  cpu time    0.2691: real time    0.2698
     EDDAV:  cpu time    0.5453: real time    0.5466
       DOS:  cpu time    0.0001: real time    0.0001
    CHARGE:  cpu time    0.3184: real time    0.3192
    MIXING:  cpu time    0.0130: real time    0.0130
    --------------------------------------------
      LOOP:  cpu time    1.6646: real time    1.6688

 eigenvalue-minimisations  :   112
 total energy-change (2. order) :-0.4012409E+01  (-0.1930197E+00)
 number of electron      20.0000000 magnetization       1.9595079
 augmentation part       -0.5061794 magnetization       1.9635330

 Broyden mixing:
  rms(total) = 0.25993E+00    rms(broyden)= 0.25992E+00
  rms(prec ) = 0.28350E+00
  weight for this iteration     100.00

 eigenvalues of (default mixing * dielectric matrix)
  average eigenvalue GAMMA=   1.2382
  1.9148  1.0579  0.7418

 Free energy of the ion-electron system (eV)
  ---------------------------------------------------
  alpha Z        PSCENC =         0.67333139
  Ewald energy   TEWEN  =       591.37649612
  -Hartree energ DENC   =     -1103.18953302
  -exchange      EXHF   =         0.00000000
  -V(xc)+E(xc)   XCENC  =        64.12917589
  PAW double counting   =       273.62387539     -273.38989355
  entropy T*S    EENTRO =        -0.00000000
  eigenvalues    EBANDS =      -234.70653787
  atomic energy  EATOM  =       645.94464650
  Solvation  Ediel_sol  =         0.00000000
  ---------------------------------------------------
  free energy    TOTEN  =       -35.53843915 eV

  energy without entropy =      -35.53843915  energy(sigma->0) =      -35.53843915


--------------------------------------------------------------------------------------------------------




--------------------------------------- Iteration      1(   9)  ---------------------------------------


    POTLOK:  cpu time    0.5148: real time    0.5162
    SETDIJ:  cpu time    0.2672: real time    0.2678
     EDDAV:  cpu time    0.4826: real time    0.4838
       DOS:  cpu time    0.0001: real time    0.0001
    CHARGE:  cpu time    0.3196: real time    0.3204
    MIXING:  cpu time    0.0121: real time    0.0121
    --------------------------------------------
      LOOP:  cpu time    1.5964: real time    1.6004

 eigenvalue-minimisations  :    96
 total energy-change (2. order) :-0.6129006E+01  (-0.3551493E+00)
 number of electron      20.0000000 magnetization       1.4825485
 augmentation part       -0.4959714 magnetization       1.4826445

 Broyden mixing:
  rms(total) = 0.99021E-01    rms(broyden)= 0.98991E-01
  rms(prec ) = 0.11141E+00
  weight for this iteration     100.00

 eigenvalues of (default mixing * dielectric matrix)
  average eigenvalue GAMMA=   1.2129
  2.0012  1.2920  0.7792  0.7792

 Free energy of the ion-electron system (eV)
  ---------------------------------------------------
  alpha Z        PSCENC =         0.67333139
  Ewald energy   TEWEN  =       591.37649612
  -Hartree energ DENC   =     -1111.15689339
  -exchange      EXHF   =         0.00000000
  -V(xc)+E(xc)   XCENC  =        59.78944153
  PAW double counting   =       280.39739845     -280.14729999
  entropy T*S    EENTRO =        -0.00000000
  eigenvalues    EBANDS =      -228.54456537
  atomic energy  EATOM  =       645.94464650
  Solvation  Ediel_sol  =         0.00000000
  ---------------------------------------------------
  free energy    TOTEN  =       -41.66744476 eV

  energy without entropy =      -41.66744476  energy(sigma->0) =      -41.66744476


--------------------------------------------------------------------------------------------------------




--------------------------------------- Iteration      1(  10)  ---------------------------------------


    POTLOK:  cpu time    0.5177: real time    0.5191
    SETDIJ:  cpu time    0.2665: real time    0.2671
     EDDAV:  cpu time    0.5811: real time    0.5825
       DOS:  cpu time    0.0001: real time    0.0001
    CHARGE:  cpu time    0.3215: real time    0.3223
    MIXING:  cpu time    0.0143: real time    0.0144
    --------------------------------------------
      LOOP:  cpu time    1.7013: real time    1.7055

 eigenvalue-minimisations  :   120
 total energy-change (2. order) :-0.8881553E+00  (-0.2146479E-01)
 number of electron      20.0000000 magnetization       0.6957704
 augmentation part       -0.4996463 magnetization       0.6959448

 Broyden mixing:
  rms(total) = 0.67049E-01    rms(broyden)= 0.67039E-01
  rms(prec ) = 0.76977E-01
  weight for this iteration     100.00

 eigenvalues of (default mixing * dielectric matrix)
  average eigenvalue GAMMA=   1.2916
  1.9488  1.9488  0.9422  0.9422  0.6763

 Free energy of the ion-electron system (eV)
  ---------------------------------------------------
  alpha Z        PSCENC =         0.67333139
  Ewald energy   TEWEN  =       591.37649612
  -Hartree energ DENC   =     -1111.42730639
  -exchange      EXHF   =         0.00000000
  -V(xc)+E(xc)   XCENC  =        59.03364910
  PAW double counting   =       278.38654540     -278.10853969
  entropy T*S    EENTRO =        -0.00000000
  eigenvalues    EBANDS =      -228.43442250
  atomic energy  EATOM  =       645.94464650
  Solvation  Ediel_sol  =         0.00000000
  ---------------------------------------------------
  free energy    TOTEN  =       -42.55560006 eV

  energy without entropy =      -42.55560006  energy(sigma->0) =      -42.55560006


--------------------------------------------------------------------------------------------------------




--------------------------------------- Iteration      1(  11)  ---------------------------------------


    POTLOK:  cpu time    0.5331: real time    0.5345
    SETDIJ:  cpu time    0.2676: real time    0.2682
     EDDAV:  cpu time    0.4300: real time    0.4310
       DOS:  cpu time    0.0001: real time    0.0001
    CHARGE:  cpu time    0.3200: real time    0.3208
    MIXING:  cpu time    0.0152: real time    0.0153
    --------------------------------------------
      LOOP:  cpu time    1.5660: real time    1.5699

 eigenvalue-minimisations  :    80
 total energy-change (2. order) :-0.9058039E+00  (-0.2810295E-01)
 number of electron      20.0000000 magnetization       0.4337719
 augmentation part       -0.5061632 magnetization       0.4329355

 Broyden mixing:
  rms(total) = 0.33765E-01    rms(broyden)= 0.33757E-01
  rms(prec ) = 0.40398E-01
  weight for this iteration     100.00

 eigenvalues of (default mixing * dielectric matrix)
  average eigenvalue GAMMA=   1.3225
  2.2888  2.2888  1.1289  0.8033  0.8033  0.6220

 Free energy of the ion-electron system (eV)
  ---------------------------------------------------
  alpha Z        PSCENC =         0.67333139
  Ewald energy   TEWEN  =       591.37649612
  -Hartree energ DENC   =     -1111.36718020
  -exchange      EXHF   =         0.00000000
  -V(xc)+E(xc)   XCENC  =        58.23805635
  PAW double counting   =       274.98897946     -274.67563227
  entropy T*S    EENTRO =        -0.00000000
  eigenvalues    EBANDS =      -228.64010130
  atomic energy  EATOM  =       645.94464650
  Solvation  Ediel_sol  =         0.00000000
  ---------------------------------------------------
  free energy    TOTEN  =       -43.46140394 eV

  energy without entropy =      -43.46140394  energy(sigma->0) =      -43.46140394


--------------------------------------------------------------------------------------------------------




--------------------------------------- Iteration      1(  12)  ---------------------------------------


    POTLOK:  cpu time    0.5116: real time    0.5138
    SETDIJ:  cpu time    0.2669: real time    0.2675
     EDDAV:  cpu time    0.5128: real time    0.5140
       DOS:  cpu time    0.0001: real time    0.0001
    CHARGE:  cpu time    0.3179: real time    0.3187
    MIXING:  cpu time    0.0140: real time    0.0140
    --------------------------------------------
      LOOP:  cpu time    1.6232: real time    1.6281

 eigenvalue-minimisations  :   104
 total energy-change (2. order) :-0.2681327E+00  (-0.4534396E-02)
 number of electron      20.0000000 magnetization       0.1054091
 augmentation part       -0.5067981 magnetization       0.1052513

 Broyden mixing:
  rms(total) = 0.19062E-01    rms(broyden)= 0.19058E-01
  rms(prec ) = 0.26186E-01
  weight for this iteration     100.00

 eigenvalues of (default mixing * dielectric matrix)
  average eigenvalue GAMMA=   1.4015
  2.9394  2.1017  1.4484  1.0786  0.8696  0.7485  0.6241

 Free energy of the ion-electron system (eV)
  ---------------------------------------------------
  alpha Z        PSCENC =         0.67333139
  Ewald energy   TEWEN  =       591.37649612
  -Hartree energ DENC   =     -1111.93615026
  -exchange      EXHF   =         0.00000000
  -V(xc)+E(xc)   XCENC  =        58.02484689
  PAW double counting   =       275.18997539     -274.87829849
  entropy T*S    EENTRO =        -0.00000000
  eigenvalues    EBANDS =      -228.12438417
  atomic energy  EATOM  =       645.94464650
  Solvation  Ediel_sol  =         0.00000000
  ---------------------------------------------------
  free energy    TOTEN  =       -43.72953663 eV

  energy without entropy =      -43.72953663  energy(sigma->0) =      -43.72953663


--------------------------------------------------------------------------------------------------------




--------------------------------------- Iteration      1(  13)  ---------------------------------------


    POTLOK:  cpu time    0.5261: real time    0.5311
    SETDIJ:  cpu time    0.2694: real time    0.2700
     EDDAV:  cpu time    0.5009: real time    0.5021
       DOS:  cpu time    0.0001: real time    0.0001
    CHARGE:  cpu time    0.3175: real time    0.3183
    MIXING:  cpu time    0.0150: real time    0.0150
    --------------------------------------------
      LOOP:  cpu time    1.6289: real time    1.6366

 eigenvalue-minimisations  :   100
 total energy-change (2. order) :-0.3304335E+00  (-0.4317371E-02)
 number of electron      20.0000000 magnetization       0.0038120
 augmentation part       -0.5055563 magnetization       0.0038322

 Broyden mixing:
  rms(total) = 0.89696E-02    rms(broyden)= 0.89668E-02
  rms(prec ) = 0.14453E-01
  weight for this iteration     100.00

 eigenvalues of (default mixing * dielectric matrix)
  average eigenvalue GAMMA=   1.4384
  3.5497  2.1146  1.7037  1.0987  0.8377  0.8377  0.7386  0.6267

 Free energy of the ion-electron system (eV)
  ---------------------------------------------------
  alpha Z        PSCENC =         0.67333139
  Ewald energy   TEWEN  =       591.37649612
  -Hartree energ DENC   =     -1112.35229195
  -exchange      EXHF   =         0.00000000
  -V(xc)+E(xc)   XCENC  =        57.69591037
  PAW double counting   =       275.11343237     -274.80438765
  entropy T*S    EENTRO =        -0.00000000
  eigenvalues    EBANDS =      -227.70710730
  atomic energy  EATOM  =       645.94464650
  Solvation  Ediel_sol  =         0.00000000
  ---------------------------------------------------
  free energy    TOTEN  =       -44.05997016 eV

  energy without entropy =      -44.05997016  energy(sigma->0) =      -44.05997016


--------------------------------------------------------------------------------------------------------




--------------------------------------- Iteration      1(  14)  ---------------------------------------


    POTLOK:  cpu time    0.5213: real time    0.5227
    SETDIJ:  cpu time    0.2671: real time    0.2678
     EDDAV:  cpu time    0.5277: real time    0.5289
       DOS:  cpu time    0.0001: real time    0.0001
    CHARGE:  cpu time    0.3171: real time    0.3179
    MIXING:  cpu time    0.0161: real time    0.0161
    --------------------------------------------
      LOOP:  cpu time    1.6494: real time    1.6535

 eigenvalue-minimisations  :   108
 total energy-change (2. order) :-0.6626793E-01  (-0.7251008E-03)
 number of electron      20.0000000 magnetization      -0.0249435
 augmentation part       -0.5052078 magnetization      -0.0249938

 Broyden mixing:
  rms(total) = 0.50244E-02    rms(broyden)= 0.50232E-02
  rms(prec ) = 0.99567E-02
  weight for this iteration     100.00

 eigenvalues of (default mixing * dielectric matrix)
  average eigenvalue GAMMA=   1.4312
  3.7492  2.1309  1.6900  1.1408  1.1408  0.8906  0.7907  0.7271  0.6204

 Free energy of the ion-electron system (eV)
  ---------------------------------------------------
  alpha Z        PSCENC =         0.67333139
  Ewald energy   TEWEN  =       591.37649612
  -Hartree energ DENC   =     -1112.55283080
  -exchange      EXHF   =         0.00000000
  -V(xc)+E(xc)   XCENC  =        57.62652037
  PAW double counting   =       274.96868581     -274.65805077
  entropy T*S    EENTRO =        -0.00000000
  eigenvalues    EBANDS =      -227.50503670
  atomic energy  EATOM  =       645.94464650
  Solvation  Ediel_sol  =         0.00000000
  ---------------------------------------------------
  free energy    TOTEN  =       -44.12623808 eV

  energy without entropy =      -44.12623808  energy(sigma->0) =      -44.12623808


--------------------------------------------------------------------------------------------------------




--------------------------------------- Iteration      1(  15)  ---------------------------------------


    POTLOK:  cpu time    0.5174: real time    0.5189
    SETDIJ:  cpu time    0.2678: real time    0.2684
     EDDAV:  cpu time    0.5433: real time    0.5446
       DOS:  cpu time    0.0001: real time    0.0001
    CHARGE:  cpu time    0.3172: real time    0.3180
    MIXING:  cpu time    0.0163: real time    0.0163
    --------------------------------------------
      LOOP:  cpu time    1.6621: real time    1.6663

 eigenvalue-minimisations  :   112
 total energy-change (2. order) :-0.9417245E-02  (-0.1475051E-03)
 number of electron      20.0000000 magnetization      -0.0380794
 augmentation part       -0.5057819 magnetization      -0.0381149

 Broyden mixing:
  rms(total) = 0.33742E-02    rms(broyden)= 0.33733E-02
  rms(prec ) = 0.73675E-02
  weight for this iteration     100.00

 eigenvalues of (default mixing * dielectric matrix)
  average eigenvalue GAMMA=   1.4652
  3.9181  2.0829  2.0829  1.5837  1.0121  0.9275  0.9275  0.8142  0.6209  0.6822

 Free energy of the ion-electron system (eV)
  ---------------------------------------------------
  alpha Z        PSCENC =         0.67333139
  Ewald energy   TEWEN  =       591.37649612
  -Hartree energ DENC   =     -1112.73642762
  -exchange      EXHF   =         0.00000000
  -V(xc)+E(xc)   XCENC  =        57.61639452
  PAW double counting   =       274.91962176     -274.60775164
  entropy T*S    EENTRO =        -0.00000000
  eigenvalues    EBANDS =      -227.32196635
  atomic energy  EATOM  =       645.94464650
  Solvation  Ediel_sol  =         0.00000000
  ---------------------------------------------------
  free energy    TOTEN  =       -44.13565533 eV

  energy without entropy =      -44.13565533  energy(sigma->0) =      -44.13565533


--------------------------------------------------------------------------------------------------------




--------------------------------------- Iteration      1(  16)  ---------------------------------------


    POTLOK:  cpu time    0.5166: real time    0.5180
    SETDIJ:  cpu time    0.2672: real time    0.2679
     EDDAV:  cpu time    0.5033: real time    0.5045
       DOS:  cpu time    0.0001: real time    0.0001
    CHARGE:  cpu time    0.3187: real time    0.3195
    MIXING:  cpu time    0.0160: real time    0.0160
    --------------------------------------------
      LOOP:  cpu time    1.6219: real time    1.6259

 eigenvalue-minimisations  :   100
 total energy-change (2. order) :-0.5314894E-02  (-0.1296340E-03)
 number of electron      20.0000000 magnetization      -0.0314668
 augmentation part       -0.5059923 magnetization      -0.0314733

 Broyden mixing:
  rms(total) = 0.24002E-02    rms(broyden)= 0.23999E-02
  rms(prec ) = 0.46939E-02
  weight for this iteration     100.00

 eigenvalues of (default mixing * dielectric matrix)
  average eigenvalue GAMMA=   1.4819
  4.0867  2.5758  2.1036  1.5184  1.1065  1.1065  0.8639  0.8639  0.7759  0.6161
  0.6835

 Free energy of the ion-electron system (eV)
  ---------------------------------------------------
  alpha Z        PSCENC =         0.67333139
  Ewald energy   TEWEN  =       591.37649612
  -Hartree energ DENC   =     -1112.99272144
  -exchange      EXHF   =         0.00000000
  -V(xc)+E(xc)   XCENC  =        57.61342947
  PAW double counting   =       274.95026327     -274.63842237
  entropy T*S    EENTRO =        -0.00000000
  eigenvalues    EBANDS =      -227.06799315
  atomic energy  EATOM  =       645.94464650
  Solvation  Ediel_sol  =         0.00000000
  ---------------------------------------------------
  free energy    TOTEN  =       -44.14097022 eV

  energy without entropy =      -44.14097022  energy(sigma->0) =      -44.14097022


--------------------------------------------------------------------------------------------------------




--------------------------------------- Iteration      1(  17)  ---------------------------------------


    POTLOK:  cpu time    0.5126: real time    0.5139
    SETDIJ:  cpu time    0.2689: real time    0.2695
     EDDAV:  cpu time    0.4787: real time    0.4799
       DOS:  cpu time    0.0001: real time    0.0001
    CHARGE:  cpu time    0.3202: real time    0.3209
    MIXING:  cpu time    0.0178: real time    0.0178
    --------------------------------------------
      LOOP:  cpu time    1.5982: real time    1.6022

 eigenvalue-minimisations  :    92
 total energy-change (2. order) : 0.2233677E-03  (-0.9323734E-04)
 number of electron      20.0000000 magnetization      -0.0157727
 augmentation part       -0.5058377 magnetization      -0.0157727

 Broyden mixing:
  rms(total) = 0.18179E-02    rms(broyden)= 0.18178E-02
  rms(prec ) = 0.29596E-02
  weight for this iteration     100.00

 eigenvalues of (default mixing * dielectric matrix)
  average eigenvalue GAMMA=   1.5163
  4.3137  3.0200  1.8671  1.8671  1.1916  1.1916  1.0294  0.8534  0.8534  0.7274
  0.6185  0.6623

 Free energy of the ion-electron system (eV)
  ---------------------------------------------------
  alpha Z        PSCENC =         0.67333139
  Ewald energy   TEWEN  =       591.37649612
  -Hartree energ DENC   =     -1113.17895083
  -exchange      EXHF   =         0.00000000
  -V(xc)+E(xc)   XCENC  =        57.61606032
  PAW double counting   =       274.94825358     -274.63630689
  entropy T*S    EENTRO =        -0.00000000
  eigenvalues    EBANDS =      -226.88427705
  atomic energy  EATOM  =       645.94464650
  Solvation  Ediel_sol  =         0.00000000
  ---------------------------------------------------
  free energy    TOTEN  =       -44.14074686 eV

  energy without entropy =      -44.14074686  energy(sigma->0) =      -44.14074686


--------------------------------------------------------------------------------------------------------




--------------------------------------- Iteration      1(  18)  ---------------------------------------


    POTLOK:  cpu time    0.5662: real time    0.5677
    SETDIJ:  cpu time    0.2697: real time    0.2704
     EDDAV:  cpu time    0.4873: real time    0.4885
       DOS:  cpu time    0.0001: real time    0.0001
    CHARGE:  cpu time    0.3179: real time    0.3187
    MIXING:  cpu time    0.0172: real time    0.0172
    --------------------------------------------
      LOOP:  cpu time    1.6584: real time    1.6626

 eigenvalue-minimisations  :    96
 total energy-change (2. order) :-0.8881824E-02  (-0.4636531E-04)
 number of electron      20.0000000 magnetization      -0.0043485
 augmentation part       -0.5058098 magnetization      -0.0043427

 Broyden mixing:
  rms(total) = 0.11212E-02    rms(broyden)= 0.11210E-02
  rms(prec ) = 0.16842E-02
  weight for this iteration     100.00

 eigenvalues of (default mixing * dielectric matrix)
  average eigenvalue GAMMA=   1.6058
  4.8174  3.4948  2.1808  2.1808  1.2930  1.1708  1.1708  0.8702  0.8702  0.8409
  0.7239  0.6172  0.6441

 Free energy of the ion-electron system (eV)
  ---------------------------------------------------
  alpha Z        PSCENC =         0.67333139
  Ewald energy   TEWEN  =       591.37649612
  -Hartree energ DENC   =     -1113.30220058
  -exchange      EXHF   =         0.00000000
  -V(xc)+E(xc)   XCENC  =        57.60918499
  PAW double counting   =       274.86470795     -274.55174257
  entropy T*S    EENTRO =        -0.00000000
  eigenvalues    EBANDS =      -226.76405247
  atomic energy  EATOM  =       645.94464650
  Solvation  Ediel_sol  =         0.00000000
  ---------------------------------------------------
  free energy    TOTEN  =       -44.14962868 eV

  energy without entropy =      -44.14962868  energy(sigma->0) =      -44.14962868


--------------------------------------------------------------------------------------------------------




--------------------------------------- Iteration      1(  19)  ---------------------------------------


    POTLOK:  cpu time    0.5276: real time    0.5298
    SETDIJ:  cpu time    0.2694: real time    0.2701
     EDDAV:  cpu time    0.4682: real time    0.4693
       DOS:  cpu time    0.0001: real time    0.0001
    CHARGE:  cpu time    0.3189: real time    0.3196
    MIXING:  cpu time    0.0181: real time    0.0182
    --------------------------------------------
      LOOP:  cpu time    1.6023: real time    1.6071

 eigenvalue-minimisations  :    92
 total energy-change (2. order) :-0.5625878E-02  (-0.1617578E-04)
 number of electron      20.0000000 magnetization       0.0002277
 augmentation part       -0.5058899 magnetization       0.0002335

 Broyden mixing:
  rms(total) = 0.55960E-03    rms(broyden)= 0.55948E-03
  rms(prec ) = 0.93364E-03
  weight for this iteration     100.00

 eigenvalues of (default mixing * dielectric matrix)
  average eigenvalue GAMMA=   1.7077
  5.9869  3.8709  2.3185  2.3185  1.4738  1.1934  1.1934  1.0811  0.8614  0.8614
  0.7921  0.7041  0.6129  0.6398

 Free energy of the ion-electron system (eV)
  ---------------------------------------------------
  alpha Z        PSCENC =         0.67333139
  Ewald energy   TEWEN  =       591.37649612
  -Hartree energ DENC   =     -1113.37527546
  -exchange      EXHF   =         0.00000000
  -V(xc)+E(xc)   XCENC  =        57.60556853
  PAW double counting   =       274.83684306     -274.52352780
  entropy T*S    EENTRO =        -0.00000000
  eigenvalues    EBANDS =      -226.69333690
  atomic energy  EATOM  =       645.94464650
  Solvation  Ediel_sol  =         0.00000000
  ---------------------------------------------------
  free energy    TOTEN  =       -44.15525456 eV

  energy without entropy =      -44.15525456  energy(sigma->0) =      -44.15525456


--------------------------------------------------------------------------------------------------------




--------------------------------------- Iteration      1(  20)  ---------------------------------------


    POTLOK:  cpu time    0.5256: real time    0.5270
    SETDIJ:  cpu time    0.2740: real time    0.2746
     EDDAV:  cpu time    0.5295: real time    0.5308
       DOS:  cpu time    0.0001: real time    0.0001
    CHARGE:  cpu time    0.3181: real time    0.3189
    MIXING:  cpu time    0.0189: real time    0.0189
    --------------------------------------------
      LOOP:  cpu time    1.6662: real time    1.6703

 eigenvalue-minimisations  :   104
 total energy-change (2. order) :-0.1163840E-02  (-0.3821681E-05)
 number of electron      20.0000000 magnetization       0.0012970
 augmentation part       -0.5059288 magnetization       0.0012980

 Broyden mixing:
  rms(total) = 0.31861E-03    rms(broyden)= 0.31843E-03
  rms(prec ) = 0.62286E-03
  weight for this iteration     100.00

 eigenvalues of (default mixing * dielectric matrix)
  average eigenvalue GAMMA=   1.7820
  7.3893  3.9665  2.6093  2.2457  1.6757  1.2730  1.1125  1.1125  0.9741  0.8356
  0.8356  0.7693  0.6825  0.6121  0.6369

 Free energy of the ion-electron system (eV)
  ---------------------------------------------------
  alpha Z        PSCENC =         0.67333139
  Ewald energy   TEWEN  =       591.37649612
  -Hartree energ DENC   =     -1113.40280589
  -exchange      EXHF   =         0.00000000
  -V(xc)+E(xc)   XCENC  =        57.60481801
  PAW double counting   =       274.84704740     -274.53398936
  entropy T*S    EENTRO =        -0.00000000
  eigenvalues    EBANDS =      -226.66596256
  atomic energy  EATOM  =       645.94464650
  Solvation  Ediel_sol  =         0.00000000
  ---------------------------------------------------
  free energy    TOTEN  =       -44.15641840 eV

  energy without entropy =      -44.15641840  energy(sigma->0) =      -44.15641840


--------------------------------------------------------------------------------------------------------




--------------------------------------- Iteration      1(  21)  ---------------------------------------


    POTLOK:  cpu time    0.5120: real time    0.5134
    SETDIJ:  cpu time    0.2672: real time    0.2679
     EDDAV:  cpu time    0.4877: real time    0.4889
       DOS:  cpu time    0.0001: real time    0.0001
    CHARGE:  cpu time    0.3232: real time    0.3240
    MIXING:  cpu time    0.0185: real time    0.0186
    --------------------------------------------
      LOOP:  cpu time    1.6087: real time    1.6128

 eigenvalue-minimisations  :    96
 total energy-change (2. order) :-0.7084711E-04  (-0.9706049E-06)
 number of electron      20.0000000 magnetization       0.0014736
 augmentation part       -0.5059222 magnetization       0.0014743

 Broyden mixing:
  rms(total) = 0.22330E-03    rms(broyden)= 0.22312E-03
  rms(prec ) = 0.45222E-03
  weight for this iteration     100.00

 eigenvalues of (default mixing * dielectric matrix)
  average eigenvalue GAMMA=   1.8099
  8.0956  4.0221  2.8368  2.1017  1.8705  1.4687  1.1557  1.1557  1.0200  0.8824
  0.8479  0.8479  0.7221  0.6881  0.6155  0.6274

 Free energy of the ion-electron system (eV)
  ---------------------------------------------------
  alpha Z        PSCENC =         0.67333139
  Ewald energy   TEWEN  =       591.37649612
  -Hartree energ DENC   =     -1113.40399174
  -exchange      EXHF   =         0.00000000
  -V(xc)+E(xc)   XCENC  =        57.60426070
  PAW double counting   =       274.83921940     -274.52616396
  entropy T*S    EENTRO =        -0.00000000
  eigenvalues    EBANDS =      -226.66428765
  atomic energy  EATOM  =       645.94464650
  Solvation  Ediel_sol  =         0.00000000
  ---------------------------------------------------
  free energy    TOTEN  =       -44.15648924 eV

  energy without entropy =      -44.15648924  energy(sigma->0) =      -44.15648924


--------------------------------------------------------------------------------------------------------




--------------------------------------- Iteration      1(  22)  ---------------------------------------


    POTLOK:  cpu time    0.5285: real time    0.5299
    SETDIJ:  cpu time    0.2697: real time    0.2703
     EDDAV:  cpu time    0.4506: real time    0.4517
       DOS:  cpu time    0.0001: real time    0.0001
    CHARGE:  cpu time    0.3208: real time    0.3215
    MIXING:  cpu time    0.0181: real time    0.0182
    --------------------------------------------
      LOOP:  cpu time    1.5877: real time    1.5917

 eigenvalue-minimisations  :    88
 total energy-change (2. order) :-0.7999766E-06  (-0.4609314E-06)
 number of electron      20.0000000 magnetization       0.0012908
 augmentation part       -0.5058988 magnetization       0.0012912

 Broyden mixing:
  rms(total) = 0.16231E-03    rms(broyden)= 0.16207E-03
  rms(prec ) = 0.30270E-03
  weight for this iteration     100.00

 eigenvalues of (default mixing * dielectric matrix)
  average eigenvalue GAMMA=   1.8040
  8.1681  4.0835  2.9030  2.1804  2.1804  1.5490  1.1518  1.1518  1.1372  1.0004
  0.8715  0.8318  0.8318  0.7077  0.6809  0.6195  0.6195

 Free energy of the ion-electron system (eV)
  ---------------------------------------------------
  alpha Z        PSCENC =         0.67333139
  Ewald energy   TEWEN  =       591.37649612
  -Hartree energ DENC   =     -1113.40113718
  -exchange      EXHF   =         0.00000000
  -V(xc)+E(xc)   XCENC  =        57.60409651
  PAW double counting   =       274.83663793     -274.52349981
  entropy T*S    EENTRO =        -0.00000000
  eigenvalues    EBANDS =      -226.66706149
  atomic energy  EATOM  =       645.94464650
  Solvation  Ediel_sol  =         0.00000000
  ---------------------------------------------------
  free energy    TOTEN  =       -44.15649004 eV

  energy without entropy =      -44.15649004  energy(sigma->0) =      -44.15649004


--------------------------------------------------------------------------------------------------------




--------------------------------------- Iteration      1(  23)  ---------------------------------------


    POTLOK:  cpu time    0.5150: real time    0.5165
    SETDIJ:  cpu time    0.2678: real time    0.2684
     EDDAV:  cpu time    0.4656: real time    0.4668
       DOS:  cpu time    0.0001: real time    0.0001
    CHARGE:  cpu time    0.3207: real time    0.3215
    MIXING:  cpu time    0.0186: real time    0.0186
    --------------------------------------------
      LOOP:  cpu time    1.5878: real time    1.5919

 eigenvalue-minimisations  :    92
 total energy-change (2. order) :-0.1312610E-03  (-0.3439827E-06)
 number of electron      20.0000000 magnetization       0.0005812
 augmentation part       -0.5058956 magnetization       0.0005815

 Broyden mixing:
  rms(total) = 0.13079E-03    rms(broyden)= 0.13051E-03
  rms(prec ) = 0.19423E-03
  weight for this iteration     100.00

 eigenvalues of (default mixing * dielectric matrix)
  average eigenvalue GAMMA=   1.8226
  8.2436  4.1570  3.1563  2.6017  2.2154  1.6779  1.4097  1.1662  1.1662  0.9760
  0.9760  0.8475  0.8475  0.7569  0.7152  0.6582  0.6179  0.6179

 Free energy of the ion-electron system (eV)
  ---------------------------------------------------
  alpha Z        PSCENC =         0.67333139
  Ewald energy   TEWEN  =       591.37649612
  -Hartree energ DENC   =     -1113.40090505
  -exchange      EXHF   =         0.00000000
  -V(xc)+E(xc)   XCENC  =        57.60403180
  PAW double counting   =       274.84243033     -274.52930026
  entropy T*S    EENTRO =        -0.00000000
  eigenvalues    EBANDS =      -226.66735214
  atomic energy  EATOM  =       645.94464650
  Solvation  Ediel_sol  =         0.00000000
  ---------------------------------------------------
  free energy    TOTEN  =       -44.15662131 eV

  energy without entropy =      -44.15662131  energy(sigma->0) =      -44.15662131


--------------------------------------------------------------------------------------------------------




--------------------------------------- Iteration      1(  24)  ---------------------------------------


    POTLOK:  cpu time    0.5157: real time    0.5171
    SETDIJ:  cpu time    0.2687: real time    0.2694
     EDDAV:  cpu time    0.4760: real time    0.4772
       DOS:  cpu time    0.0001: real time    0.0001
    CHARGE:  cpu time    0.3245: real time    0.3253
    MIXING:  cpu time    0.0201: real time    0.0201
    --------------------------------------------
      LOOP:  cpu time    1.6051: real time    1.6092

 eigenvalue-minimisations  :    92
 total energy-change (2. order) :-0.1605196E-03  (-0.3016719E-06)
 number of electron      20.0000000 magnetization       0.0001766
 augmentation part       -0.5059056 magnetization       0.0001775

 Broyden mixing:
  rms(total) = 0.61587E-04    rms(broyden)= 0.60992E-04
  rms(prec ) = 0.89062E-04
  weight for this iteration     100.00

 eigenvalues of (default mixing * dielectric matrix)
  average eigenvalue GAMMA=   1.8807
  8.5346  4.6305  3.9203  2.7366  2.0452  2.0452  1.5274  1.1617  1.1617  1.0973
  0.9522  0.9522  0.8220  0.8220  0.7412  0.7053  0.6462  0.6160  0.6160

 Free energy of the ion-electron system (eV)
  ---------------------------------------------------
  alpha Z        PSCENC =         0.67333139
  Ewald energy   TEWEN  =       591.37649612
  -Hartree energ DENC   =     -1113.39800415
  -exchange      EXHF   =         0.00000000
  -V(xc)+E(xc)   XCENC  =        57.60369019
  PAW double counting   =       274.84327191     -274.53016836
  entropy T*S    EENTRO =        -0.00000000
  eigenvalues    EBANDS =      -226.67004542
  atomic energy  EATOM  =       645.94464650
  Solvation  Ediel_sol  =         0.00000000
  ---------------------------------------------------
  free energy    TOTEN  =       -44.15678183 eV

  energy without entropy =      -44.15678183  energy(sigma->0) =      -44.15678183


--------------------------------------------------------------------------------------------------------




--------------------------------------- Iteration      1(  25)  ---------------------------------------


    POTLOK:  cpu time    0.5209: real time    0.5223
    SETDIJ:  cpu time    0.2667: real time    0.2673
     EDDAV:  cpu time    0.5275: real time    0.5288
       DOS:  cpu time    0.0001: real time    0.0001
    CHARGE:  cpu time    0.3204: real time    0.3212
    MIXING:  cpu time    0.0212: real time    0.0213
    --------------------------------------------
      LOOP:  cpu time    1.6568: real time    1.6611

 eigenvalue-minimisations  :   108
 total energy-change (2. order) :-0.1793530E-04  (-0.9177567E-07)
 number of electron      20.0000000 magnetization       0.0000206
 augmentation part       -0.5059098 magnetization       0.0000210

 Broyden mixing:
  rms(total) = 0.38889E-04    rms(broyden)= 0.37958E-04
  rms(prec ) = 0.53874E-04
  weight for this iteration     100.00

 eigenvalues of (default mixing * dielectric matrix)
  average eigenvalue GAMMA=   1.9459
  8.9288  5.8216  4.0331  2.7712  2.1844  2.1844  1.5360  1.3686  1.1653  1.1653
  0.9899  0.9899  0.8556  0.8556  0.7752  0.7442  0.6811  0.6410  0.6137  0.6137

 Free energy of the ion-electron system (eV)
  ---------------------------------------------------
  alpha Z        PSCENC =         0.67333139
  Ewald energy   TEWEN  =       591.37649612
  -Hartree energ DENC   =     -1113.39588071
  -exchange      EXHF   =         0.00000000
  -V(xc)+E(xc)   XCENC  =        57.60358638
  PAW double counting   =       274.84197508     -274.52886841
  entropy T*S    EENTRO =        -0.00000000
  eigenvalues    EBANDS =      -226.67208610
  atomic energy  EATOM  =       645.94464650
  Solvation  Ediel_sol  =         0.00000000
  ---------------------------------------------------
  free energy    TOTEN  =       -44.15679976 eV

  energy without entropy =      -44.15679976  energy(sigma->0) =      -44.15679976


--------------------------------------------------------------------------------------------------------




--------------------------------------- Iteration      1(  26)  ---------------------------------------


    POTLOK:  cpu time    0.5188: real time    0.5202
    SETDIJ:  cpu time    0.2670: real time    0.2677
     EDDAV:  cpu time    0.5317: real time    0.5330
       DOS:  cpu time    0.0001: real time    0.0001
    CHARGE:  cpu time    0.3268: real time    0.3276
    MIXING:  cpu time    0.0223: real time    0.0224
    --------------------------------------------
      LOOP:  cpu time    1.6667: real time    1.6709

 eigenvalue-minimisations  :   108
 total energy-change (2. order) :-0.7412942E-05  (-0.1544973E-07)
 number of electron      20.0000000 magnetization      -0.0000099
 augmentation part       -0.5059078 magnetization      -0.0000097

 Broyden mixing:
  rms(total) = 0.19784E-04    rms(broyden)= 0.17897E-04
  rms(prec ) = 0.28196E-04
  weight for this iteration     100.00

 eigenvalues of (default mixing * dielectric matrix)
  average eigenvalue GAMMA=   1.9759
  9.2390  6.6679  4.0434  2.8910  2.2918  2.1292  1.7494  1.4883  1.1634  1.1634
  1.0260  0.9727  0.9727  0.8272  0.8272  0.7824  0.7193  0.6783  0.6339  0.6106
  0.6157

 Free energy of the ion-electron system (eV)
  ---------------------------------------------------
  alpha Z        PSCENC =         0.67333139
  Ewald energy   TEWEN  =       591.37649612
  -Hartree energ DENC   =     -1113.39500692
  -exchange      EXHF   =         0.00000000
  -V(xc)+E(xc)   XCENC  =        57.60359604
  PAW double counting   =       274.84183884     -274.52872596
  entropy T*S    EENTRO =        -0.00000000
  eigenvalues    EBANDS =      -226.67298318
  atomic energy  EATOM  =       645.94464650
  Solvation  Ediel_sol  =         0.00000000
  ---------------------------------------------------
  free energy    TOTEN  =       -44.15680717 eV

  energy without entropy =      -44.15680717  energy(sigma->0) =      -44.15680717


--------------------------------------------------------------------------------------------------------




--------------------------------------- Iteration      1(  27)  ---------------------------------------


    POTLOK:  cpu time    0.5324: real time    0.5338
    SETDIJ:  cpu time    0.2694: real time    0.2700
     EDDAV:  cpu time    0.5056: real time    0.5069
       DOS:  cpu time    0.0001: real time    0.0001
    CHARGE:  cpu time    0.3236: real time    0.3244
    MIXING:  cpu time    0.0228: real time    0.0228
    --------------------------------------------
      LOOP:  cpu time    1.6538: real time    1.6580

 eigenvalue-minimisations  :   100
 total energy-change (2. order) :-0.1339856E-05  (-0.5734035E-08)
 number of electron      20.0000000 magnetization      -0.0000235
 augmentation part       -0.5059066 magnetization      -0.0000235

 Broyden mixing:
  rms(total) = 0.14477E-04    rms(broyden)= 0.11774E-04
  rms(prec ) = 0.17851E-04
  weight for this iteration     100.00
  WARNING: grid for Broyden might be to small

 eigenvalues of (default mixing * dielectric matrix)
  average eigenvalue GAMMA=   1.9775
  9.4221  6.9826  4.0512  3.0149  2.4369  2.0252  2.0252  1.4979  1.1636  1.1636
  1.1916  1.0000  1.0000  0.8583  0.8583  0.8171  0.7701  0.6914  0.6801  0.6288
  0.6181  0.6085

 Free energy of the ion-electron system (eV)
  ---------------------------------------------------
  alpha Z        PSCENC =         0.67333139
  Ewald energy   TEWEN  =       591.37649612
  -Hartree energ DENC   =     -1113.39471465
  -exchange      EXHF   =         0.00000000
  -V(xc)+E(xc)   XCENC  =        57.60360090
  PAW double counting   =       274.84238280     -274.52927530
  entropy T*S    EENTRO =        -0.00000000
  eigenvalues    EBANDS =      -226.67327626
  atomic energy  EATOM  =       645.94464650
  Solvation  Ediel_sol  =         0.00000000
  ---------------------------------------------------
  free energy    TOTEN  =       -44.15680851 eV

  energy without entropy =      -44.15680851  energy(sigma->0) =      -44.15680851


--------------------------------------------------------------------------------------------------------




--------------------------------------- Iteration      1(  28)  ---------------------------------------


    POTLOK:  cpu time    0.5129: real time    0.5143
    SETDIJ:  cpu time    0.2672: real time    0.2678
     EDDAV:  cpu time    0.5114: real time    0.5127
       DOS:  cpu time    0.0001: real time    0.0001
    CHARGE:  cpu time    0.3241: real time    0.3249
    MIXING:  cpu time    0.0243: real time    0.0244
    --------------------------------------------
      LOOP:  cpu time    1.6401: real time    1.6442

 eigenvalue-minimisations  :   104
 total energy-change (2. order) :-0.2507418E-05  (-0.2908215E-08)
 number of electron      20.0000000 magnetization      -0.0000241
 augmentation part       -0.5059072 magnetization      -0.0000241

 Broyden mixing:
  rms(total) = 0.10047E-04    rms(broyden)= 0.54748E-05
  rms(prec ) = 0.93857E-05
  weight for this iteration     100.00
  WARNING: grid for Broyden might be to small

 eigenvalues of (default mixing * dielectric matrix)
  average eigenvalue GAMMA=   1.9843
  9.5327  7.1714  4.0708  3.2416  2.6405  2.1062  2.1062  1.5735  1.4053  1.1637
  1.1637  0.9999  0.9999  0.9936  0.8418  0.8418  0.8301  0.7430  0.6965  0.6640
  0.6267  0.6170  0.6077

 Free energy of the ion-electron system (eV)
  ---------------------------------------------------
  alpha Z        PSCENC =         0.67333139
  Ewald energy   TEWEN  =       591.37649612
  -Hartree energ DENC   =     -1113.39427918
  -exchange      EXHF   =         0.00000000
  -V(xc)+E(xc)   XCENC  =        57.60357894
  PAW double counting   =       274.84230331     -274.52919796
  entropy T*S    EENTRO =        -0.00000000
  eigenvalues    EBANDS =      -226.67369013
  atomic energy  EATOM  =       645.94464650
  Solvation  Ediel_sol  =         0.00000000
  ---------------------------------------------------
  free energy    TOTEN  =       -44.15681102 eV

  energy without entropy =      -44.15681102  energy(sigma->0) =      -44.15681102


--------------------------------------------------------------------------------------------------------




--------------------------------------- Iteration      1(  29)  ---------------------------------------


    POTLOK:  cpu time    0.5320: real time    0.5335
    SETDIJ:  cpu time    0.2700: real time    0.2707
     EDDAV:  cpu time    0.4861: real time    0.4873
       DOS:  cpu time    0.0001: real time    0.0001
    CHARGE:  cpu time    0.3253: real time    0.3261
    MIXING:  cpu time    0.0257: real time    0.0257
    --------------------------------------------
      LOOP:  cpu time    1.6392: real time    1.6433

 eigenvalue-minimisations  :    96
 total energy-change (2. order) :-0.1749443E-05  (-0.2494561E-08)
 number of electron      20.0000000 magnetization      -0.0000135
 augmentation part       -0.5059078 magnetization      -0.0000135

 Broyden mixing:
  rms(total) = 0.90491E-05    rms(broyden)= 0.33066E-05
  rms(prec ) = 0.55449E-05
  weight for this iteration     100.00
  WARNING: grid for Broyden might be to small

 eigenvalues of (default mixing * dielectric matrix)
  average eigenvalue GAMMA=   1.9839
  9.5700  7.3101  4.0990  3.5800  2.7432  2.1824  2.1824  1.7260  1.4494  1.1599
  1.1599  1.1646  0.9948  0.9948  0.8724  0.8724  0.8154  0.8154  0.7189  0.6975
  0.6567  0.6246  0.6172  0.6066

[...]

 eigenvalue-minimisations  :   112
 total energy-change (2. order) :-0.8839493E-08  (-0.2016710E-08)
 number of electron      20.0000000 magnetization       0.0000000
 augmentation part       -0.5058385 magnetization      -0.0000000

 Free energy of the ion-electron system (eV)
  ---------------------------------------------------
  alpha Z        PSCENC =         0.67333139
  Ewald energy   TEWEN  =       591.44072817
  -Hartree energ DENC   =     -1113.45065147
  -exchange      EXHF   =         0.00000000
  -V(xc)+E(xc)   XCENC  =        57.60613116
  PAW double counting   =       274.89090614     -274.57803421
  entropy T*S    EENTRO =        -0.00000000
  eigenvalues    EBANDS =      -226.68385788
  atomic energy  EATOM  =       645.94464650
  Solvation  Ediel_sol  =         0.00000000
  ---------------------------------------------------
  free energy    TOTEN  =       -44.15680022 eV

  energy without entropy =      -44.15680022  energy(sigma->0) =      -44.15680022


--------------------------------------------------------------------------------------------------------




 average (electrostatic) potential at core
  the test charge radii are     0.9698  0.6991  0.5201
  (the norm of the test charge is              1.0000)
       1 -95.6016       2 -58.8972       3 -58.8953       4 -41.8741       5 -41.8814
       6 -42.0504       7 -41.8941       8 -42.0484       9 -41.8700
 
 
 
 E-fermi :  -4.6557     XC(G=0):  -0.5979     alpha+bet : -0.2388


 spin component 1

 k-point     1 :       0.0000    0.0000    0.0000
  band No.  band energies     occupation 
      1     -19.6396      1.00000
      2     -17.2001      1.00000
      3     -14.5138      1.00000
      4     -10.5810      1.00000
      5     -10.4902      1.00000
      6     -10.2154      1.00000
      7      -9.6752      1.00000
      8      -8.6746      1.00000
      9      -7.4441      1.00000
     10      -4.9079      1.00000
     11      -0.4864      0.00000
     12      -0.2582      0.00000
     13       0.2934      0.00000
     14       0.3719      0.00000
     15       0.5247      0.00000
     16       0.5771      0.00000
     17       0.7895      0.00000
     18       0.8610      0.00000
     19       0.9830      0.00000
     20       1.1582      0.00000

 spin component 2

 k-point     1 :       0.0000    0.0000    0.0000
  band No.  band energies     occupation 
      1     -19.6396      1.00000
      2     -17.2001      1.00000
      3     -14.5138      1.00000
      4     -10.5810      1.00000
      5     -10.4902      1.00000
      6     -10.2154      1.00000
      7      -9.6752      1.00000
      8      -8.6746      1.00000
      9      -7.4441      1.00000
     10      -4.9079      1.00000
     11      -0.4864      0.00000
     12      -0.2582      0.00000
     13       0.2934      0.00000
     14       0.3719      0.00000
     15       0.5247      0.00000
     16       0.5771      0.00000
     17       0.7895      0.00000
     18       0.8610      0.00000
     19       0.9830      0.00000
     20       1.1582      0.00000


--------------------------------------------------------------------------------------------------------


 soft charge-density along one line, spin component           1
         0         1         2         3         4         5         6         7         8         9
 total charge-density along one line
 
 soft charge-density along one line, spin component           2
         0         1         2         3         4         5         6         7         8         9
 total charge-density along one line
 
 pseudopotential strength for first ion, spin component:           1
 42.426   0.014  -0.066  -0.016   0.022  -0.000  -0.000   0.000
  0.014   0.009   0.000   0.000  -0.000  -0.000  -0.000   0.000
 -0.066   0.000   8.731   0.005   0.003  -0.005  -0.000  -0.000
 -0.016   0.000   0.005   8.711   0.001  -0.000  -0.004  -0.000
  0.022  -0.000   0.003   0.001   8.741  -0.000  -0.000  -0.006
 -0.000  -0.000  -0.005  -0.000  -0.000   0.027   0.000   0.000
 -0.000  -0.000  -0.000  -0.004  -0.000   0.000   0.027   0.000
  0.000   0.000  -0.000  -0.000  -0.006   0.000   0.000   0.027
 pseudopotential strength for first ion, spin component:           2
 42.426   0.014  -0.066  -0.016   0.022  -0.000  -0.000   0.000
  0.014   0.009   0.000   0.000  -0.000  -0.000  -0.000   0.000
 -0.066   0.000   8.731   0.005   0.003  -0.005  -0.000  -0.000
 -0.016   0.000   0.005   8.711   0.001  -0.000  -0.004  -0.000
  0.022  -0.000   0.003   0.001   8.741  -0.000  -0.000  -0.006
 -0.000  -0.000  -0.005  -0.000  -0.000   0.027   0.000   0.000
 -0.000  -0.000  -0.000  -0.004  -0.000   0.000   0.027   0.000
  0.000   0.000  -0.000  -0.000  -0.006   0.000   0.000   0.027
 total augmentation occupancy for first ion, spin component:           1
  1.855  -0.526   0.261   0.063  -0.086   0.112   0.027  -0.037
 -0.526   2.600   1.316   0.317  -0.431  -0.936  -0.220   0.306
  0.261   1.316   1.381  -0.128  -0.069  -0.639  -0.116  -0.031
  0.063   0.317  -0.128   1.864  -0.029  -0.116  -0.197  -0.018
 -0.086  -0.431  -0.069  -0.029   1.142  -0.031  -0.018  -0.766
  0.112  -0.936  -0.639  -0.116  -0.031   0.466   0.087   0.059
  0.027  -0.220  -0.116  -0.197  -0.018   0.087   0.131   0.024
 -0.037   0.306  -0.031  -0.018  -0.766   0.059   0.024   0.667
 total augmentation occupancy for first ion, spin component:           2
  0.000   0.000   0.000   0.000  -0.000   0.000   0.000   0.000
  0.000   0.000   0.000   0.000  -0.000  -0.000  -0.000   0.000
  0.000   0.000  -0.000   0.000  -0.000  -0.000   0.000  -0.000
  0.000   0.000   0.000  -0.000  -0.000  -0.000  -0.000   0.000
 -0.000  -0.000  -0.000  -0.000  -0.000  -0.000   0.000   0.000
  0.000  -0.000  -0.000  -0.000  -0.000   0.000   0.000   0.000
  0.000  -0.000   0.000  -0.000   0.000   0.000   0.000  -0.000
  0.000   0.000  -0.000   0.000   0.000   0.000  -0.000  -0.000


------------------------ aborting loop because EDIFF is reached ----------------------------------------


 


 total charge     
 
# of ion       s       p       d       tot
------------------------------------------
    1        1.331   2.396   0.000   3.728
    2        0.839   1.744   0.000   2.583
    3        0.839   1.745   0.000   2.584
    4        0.642   0.042   0.000   0.684
    5        0.642   0.042   0.000   0.684
    6        0.639   0.042   0.000   0.682
    7        0.641   0.042   0.000   0.683
    8        0.639   0.042   0.000   0.682
    9        0.643   0.042   0.000   0.685
--------------------------------------------------
tot          6.855   6.138   0.000  12.994
 


 magnetization (x)
 
# of ion       s       p       d       tot
------------------------------------------
    1       -0.000  -0.000   0.000  -0.000
    2        0.000   0.000   0.000   0.000
    3        0.000  -0.000   0.000  -0.000
    4       -0.000  -0.000   0.000  -0.000
    5        0.000   0.000   0.000   0.000
    6        0.000   0.000   0.000   0.000
    7        0.000   0.000   0.000   0.000
    8       -0.000  -0.000   0.000  -0.000
    9        0.000  -0.000   0.000  -0.000
--------------------------------------------------
tot          0.000  -0.000   0.000  -0.000
 
    CHARGE:  cpu time    0.3156: real time    0.3164
    FORLOC:  cpu time    0.0288: real time    0.0288
    FORNL :  cpu time    1.7371: real time    1.7413
    STRESS:  cpu time    5.4664: real time    5.5224
    FORCOR:  cpu time    0.4860: real time    0.4873
    FORHAR:  cpu time    0.0826: real time    0.0828
    MIXING:  cpu time    0.0120: real time    0.0121
    OFIELD:  cpu time    0.0000: real time    0.0000

  FORCE on cell =-STRESS in cart. coord.  units (eV):
  Direction    XX          YY          ZZ          XY          YZ          ZX
  --------------------------------------------------------------------------------------
  Alpha Z     0.67333     0.67333     0.67333
  Ewald     441.24153   211.61138   -61.41232    72.82432    44.02344    23.79481
  Hartree   554.71223   380.42150   178.31748    55.88797    25.88259    17.53572
  E(xc)     -68.69151   -68.82674   -69.13734     0.03740     0.08381     0.01735
  Local   -1215.42401  -816.50530  -353.78160  -127.34389   -66.59355   -40.70293
  n-local    47.98009    48.16186    48.65689    -0.04855    -0.15382    -0.01321
  augment   -16.34218   -17.03809   -18.32766     0.20234     0.34070     0.08453
  Kinetic   255.19372   260.84934   274.39260    -1.56136    -3.57638    -0.72806
  Fock        0.00000     0.00000     0.00000     0.00000     0.00000     0.00000
  -------------------------------------------------------------------------------------
  Total      -0.65679    -0.65272    -0.61861    -0.00177     0.00681    -0.01179
  in kB      -0.44001    -0.43728    -0.41443    -0.00119     0.00456    -0.00790
  external pressure =       -0.43 kB  Pullay stress =        0.00 kB


 VOLUME and BASIS-vectors are now :
 -----------------------------------------------------------------------------
  energy-cutoff  :      400.00
  volume of cell :     2391.54
      direct lattice vectors                 reciprocal lattice vectors
    13.675000191  0.000000000  0.000000000     0.073126142  0.042219398  0.000000000
    -6.837500095 11.842897562  0.000000000     0.000000000  0.084438795  0.000000000
     0.000000000  0.000000000 14.767000198     0.000000000  0.000000000  0.067718561

  length of vectors
    13.675000191 13.675000191 14.767000198     0.084438795  0.084438795  0.067718561


 FORCES acting on ions
    electron-ion (+dipol)            ewald-force                    non-local-force                 convergence-correction
 -----------------------------------------------------------------------------------------------
   0.529E+02 -.162E+03 -.383E+02   -.558E+02 0.171E+03 0.405E+02   0.290E+01 -.887E+01 -.220E+01   0.177E-03 0.964E-04 0.602E-04
   -.903E+02 0.790E+01 0.576E+00   0.920E+02 -.911E+01 -.854E+00   -.171E+01 0.121E+01 0.276E+00   0.564E-04 -.258E-04 -.282E-06
   0.692E+02 0.565E+02 0.157E+02   -.699E+02 -.584E+02 -.163E+02   0.682E+00 0.192E+01 0.567E+00   0.828E-04 -.286E-03 -.135E-03
   -.269E+02 0.200E+02 0.553E+02   0.280E+02 -.219E+02 -.604E+02   -.105E+01 0.183E+01 0.511E+01   0.894E-05 -.834E-05 0.131E-04
   -.246E+02 0.442E+02 -.400E+02   0.254E+02 -.483E+02 0.437E+02   -.799E+00 0.406E+01 -.366E+01   0.905E-05 0.237E-05 -.140E-04
   -.492E+02 -.417E+02 -.121E+02   0.528E+02 0.459E+02 0.132E+02   -.358E+01 -.411E+01 -.115E+01   0.291E-05 -.979E-05 -.117E-05
   -.335E-01 0.536E+02 -.355E+02   0.124E+01 -.577E+02 0.390E+02   -.122E+01 0.410E+01 -.349E+01   0.181E-04 -.528E-04 -.242E-04
   0.651E+02 -.591E+01 -.475E+01   -.705E+02 0.719E+01 0.540E+01   0.538E+01 -.128E+01 -.651E+00   -.419E-04 -.270E-04 -.941E-05
   0.398E+01 0.268E+02 0.590E+02   -.319E+01 -.285E+02 -.643E+02   -.777E+00 0.167E+01 0.523E+01   0.101E-04 -.540E-04 -.105E-04
 -----------------------------------------------------------------------------------------------
   0.162E+00 -.528E+00 -.324E-01   0.329E-13 0.284E-13 0.000E+00   -.162E+00 0.528E+00 0.323E-01   0.324E-03 -.365E-03 -.121E-03
 
 
 POSITION                                       TOTAL-FORCE (eV/Angst)
 -----------------------------------------------------------------------------------
      7.08408      5.80428     10.02667         0.000369     -0.002832      0.008923
      8.75184      5.12494      9.89233        -0.002358      0.000353     -0.001059
      6.12249      4.32259      9.65075        -0.001852      0.007540      0.031027
      8.95794      4.75793      8.87596        -0.004603      0.001562     -0.002517
      8.90826      4.31298     10.61806         0.004694     -0.001254     -0.001992
      9.45078      5.94080     10.12104         0.000950      0.001482     -0.003222
      6.36952      3.50504     10.34421        -0.008276      0.000256      0.005608
      5.06369      4.58438      9.78041        -0.002083      0.002324     -0.008724
      6.28062      3.98939      8.61536         0.013158     -0.009431     -0.028045
 -----------------------------------------------------------------------------------
    total drift:                               -0.000294      0.000167     -0.000265


--------------------------------------------------------------------------------------------------------



  FREE ENERGIE OF THE ION-ELECTRON SYSTEM (eV)
  ---------------------------------------------------
  free  energy   TOTEN  =       -44.15680022 eV

  energy  without entropy=      -44.15680022  energy(sigma->0) =      -44.15680022
 
 d Force =-0.8408691E-05[-0.186E-04, 0.180E-05]  d Energy =-0.8032663E-05-0.376E-06
 d Force =-0.3580262E-01[-0.358E-01,-0.358E-01]  d Ewald  =-0.3580264E-01 0.243E-07


--------------------------------------------------------------------------------------------------------


    POTLOK:  cpu time    0.7943: real time    0.7963


--------------------------------------------------------------------------------------------------------


DOING DYMAT, READING DISPLACECAR
FOR   1 OUT OF   1
 HIPREC POSITION (A)    
 -----------------------------------------------------------------------------------
 DYNMAT: Loop at J=           1
 DYNMAT: Before DIRKAR
 DYNMAT: After DIRKAR
       7.084078349731350       5.804277502538818      10.026668455683302
 DYNMAT: Loop at J=           2
 DYNMAT: Before DIRKAR
 DYNMAT: After DIRKAR
       8.751838733520133       5.124936014959587       9.892334013068368
 DYNMAT: Loop at J=           3
 DYNMAT: Before DIRKAR
 DYNMAT: After DIRKAR
       6.122488813054934       4.322586935331798       9.650748096160571
 DYNMAT: Loop at J=           4
 DYNMAT: Before DIRKAR
 DYNMAT: After DIRKAR
       8.957943924888095       4.757927188894152       8.875956604724301
 DYNMAT: Loop at J=           5
 DYNMAT: Before DIRKAR
 DYNMAT: After DIRKAR
       8.908260748182347       4.312979385845058      10.618062988903528
 DYNMAT: Loop at J=           6
 DYNMAT: Before DIRKAR
 DYNMAT: After DIRKAR
       9.450778555327485       5.940798693641057      10.121042034253174
 DYNMAT: Loop at J=           7
 DYNMAT: Before DIRKAR
 DYNMAT: After DIRKAR
       6.369522256126610       3.505043690515845      10.344206633372240
 DYNMAT: Loop at J=           8
 DYNMAT: Before DIRKAR
 DYNMAT: After DIRKAR
       5.063687637546989       4.584378153653280       9.780413126333540
 DYNMAT: Loop at J=           9
 DYNMAT: Before DIRKAR
 DYNMAT: After DIRKAR
       6.280618214981106       3.989387610729937       8.615360110406794
 HIPREC TOTAL-FORCE (eV/A)    
 -----------------------------------------------------------------------------------
       0.000369031685790      -0.002832368022144       0.008923247782435
      -0.002357959061021       0.000353003759244      -0.001059083389540
      -0.001851598613725       0.007540041169203       0.031027181883090
      -0.004603182895416       0.001562058335144      -0.002516638915235
       0.004694414301397      -0.001254082195517      -0.001992383384622
       0.000949770211936       0.001481611447054      -0.003221813826306
      -0.008275696719729       0.000256339757994       0.005608330258689
      -0.002083223153775       0.002324206365750      -0.008723729371100
       0.013158444244542      -0.009430810616727      -0.028045111037411
DYMAT: ------------------------------
DYMAT: DEGREE OF FREEDOM   1  1  1
DYMAT: ------------------------------
DYMAT: DEGREE OF FREEDOM   1  2  2
DYMAT: ------------------------------
DYMAT: DEGREE OF FREEDOM   1  3  3
DYMAT: ------------------------------
DYMAT: DEGREE OF FREEDOM   2  1  4
DYMAT: ------------------------------
DYMAT: DEGREE OF FREEDOM   2  2  5
DYMAT: ------------------------------
DYMAT: DEGREE OF FREEDOM   2  3  6
DYMAT: ------------------------------
DYMAT: DEGREE OF FREEDOM   3  1  7
DYMAT: ------------------------------
DYMAT: DEGREE OF FREEDOM   3  2  8
DYMAT: ------------------------------
DYMAT: DEGREE OF FREEDOM   3  3  9
DYMAT: ------------------------------
DYMAT: DEGREE OF FREEDOM   4  1 10
DYMAT: ------------------------------
DYMAT: DEGREE OF FREEDOM   4  2 11
DYMAT: ------------------------------
DYMAT: DEGREE OF FREEDOM   4  3 12
DYMAT: ------------------------------
DYMAT: DEGREE OF FREEDOM   5  1 13
DYMAT: ------------------------------
DYMAT: DEGREE OF FREEDOM   5  2 14
DYMAT: ------------------------------
DYMAT: DEGREE OF FREEDOM   5  3 15
DYMAT: ------------------------------
DYMAT: DEGREE OF FREEDOM   6  1 16
DYMAT: ------------------------------
DYMAT: DEGREE OF FREEDOM   6  2 17
DYMAT: ------------------------------
DYMAT: DEGREE OF FREEDOM   6  3 18
DYMAT: ------------------------------
DYMAT: DEGREE OF FREEDOM   7  1 19
DYMAT: ------------------------------
DYMAT: DEGREE OF FREEDOM   7  2 20
DYMAT: ------------------------------
DYMAT: DEGREE OF FREEDOM   7  3 21
DYMAT: ------------------------------
DYMAT: DEGREE OF FREEDOM   8  1 22
DYMAT: ------------------------------
DYMAT: DEGREE OF FREEDOM   8  2 23
DYMAT: ------------------------------
DYMAT: DEGREE OF FREEDOM   8  3 24
DYMAT: ------------------------------
DYMAT: DEGREE OF FREEDOM   9  1 25
DYMAT: ------------------------------
DYMAT: DEGREE OF FREEDOM   9  2 26
DYMAT: ------------------------------
DYMAT: DEGREE OF FREEDOM   9  3 27
DYMAT: LEAVING
 stress matrix after NEB project (eV)
     -0.65679     -0.00177     -0.01179
     -0.00177     -0.65272      0.00681
     -0.01179      0.00681     -0.61861
  FORCES: max atom, RMS     0.032382    0.016408
  FORCE total and by dimension    0.049224    0.031027
  Stress total and by dimension    1.113767    0.656789


--------------------------------------------------------------------------------------------------------


     LOOP+:  cpu time   18.6883: real time   18.8959
    4ORBIT:  cpu time    0.0000: real time    0.0000
 


 total charge     
 
# of ion       s       p       d       tot
------------------------------------------
    1        1.331   2.396   0.000   3.728
    2        0.839   1.744   0.000   2.583
    3        0.839   1.745   0.000   2.584
    4        0.642   0.042   0.000   0.684
    5        0.642   0.042   0.000   0.684
    6        0.639   0.042   0.000   0.682
    7        0.641   0.042   0.000   0.683
    8        0.639   0.042   0.000   0.682
    9        0.643   0.042   0.000   0.685
--------------------------------------------------
tot          6.855   6.138   0.000  12.994
 


 magnetization (x)
 
# of ion       s       p       d       tot
------------------------------------------
    1       -0.000  -0.000   0.000  -0.000
    2        0.000   0.000   0.000   0.000
    3        0.000  -0.000   0.000  -0.000
    4       -0.000  -0.000   0.000  -0.000
    5        0.000   0.000   0.000   0.000
    6        0.000   0.000   0.000   0.000
    7        0.000   0.000   0.000   0.000
    8       -0.000  -0.000   0.000  -0.000
    9        0.000  -0.000   0.000  -0.000
--------------------------------------------------
tot          0.000  -0.000   0.000  -0.000
 

 total amount of memory used by VASP MPI-rank0   149564. kBytes
=======================================================================

   base      :      30000. kBytes
   nonlr-proj:       1043. kBytes
   fftplans  :      63994. kBytes
   grid      :      52770. kBytes
   one-center:         18. kBytes
   wavefun   :       1739. kBytes
 
  
  
 General timing and accounting informations for this job:
 ========================================================
  
                  Total CPU time used (sec):      653.115
                            User time (sec):      619.785
                          System time (sec):       33.331
                         Elapsed time (sec):      663.663
  
                   Maximum memory used (kb):      253516.
                   Average memory used (kb):           0.
  
                          Minor page faults:       151138
                          Major page faults:            2
                 Voluntary context switches:         1935
