    3    3   10    2
  0.7971799E+03  0.1367500E-08  0.1367500E-08  0.1476700E-08  0.0000000E+00
  1.000000000000000E-004
  CAR 
 zeolite                                 
      8      1     12
 
  0.0000000E+00  0.0000000E+00  0.0000000E+00  0.1000000E+01
    1      -18.433510    -18.433510   1.000000   1.000000
    2      -10.848415    -10.848415   1.000000   1.000000
    3       -9.012367     -9.012367   1.000000   1.000000
    4       -6.193253     -6.193253   1.000000   1.000000
    5       -0.820418     -0.820418   0.000000   0.000000
    6       -0.576694     -0.576694   0.000000   0.000000
    7        0.243251      0.243258   0.000000   0.000000
    8        0.483345      0.483343   0.000000   0.000000
    9        0.653589      0.653592   0.000000   0.000000
   10        0.746800      0.746802   0.000000   0.000000
   11        0.771240      0.771239   0.000000   0.000000
   12        0.964367      0.964367   0.000000   0.000000
