>>>  VASP 5.4.4 with BEEF-vdw and vtst
--------------------------------------------------------
>>>  Job information
     SLURM_JOBID=8899385
     SLURM_JOB_NODELIST=cpn-q07-20
     SLURM_NNODES=1
     SLURMTMPDIR=/scratch/8899385
     working directory = /projects/academic/ericwalk/ruthbell/Ads_Ag-SSZ13/H2S_gas/vtst
--------------------------------------------------------
>>>  Module information
--------------------------------------------------------
>>>  Running Configuration
NPROCS=16
--------------------------------------------------------
>>>  Job started at Mon Jul 11 11:56:32 EDT 2022
--------------------------------------------------------
 running on   16 total cores
 distrk:  each k-point on   16 cores,    1 groups
 distr:  one band on    4 cores,    4 groups
 using from now: INCAR     
 vasp.5.4.4.18Apr17-6-g9f103f2a35 (build Dec 31 2018 11:41:54) complex          
  
 POSCAR found type information on POSCAR  S  H 
 POSCAR found :  2 types and       3 ions
 scaLAPACK will be used

 ----------------------------------------------------------------------------- 
|                                                                             |
|  ADVICE TO THIS USER RUNNING 'VASP/VAMP'   (HEAR YOUR MASTER'S VOICE ...):  |
|                                                                             |
|      You have a (more or less) 'small supercell' and for smaller cells      |
|      it is recommended  to use the reciprocal-space projection scheme!      |
|      The real space optimization is not  efficient for small cells and it   |
|      is also less accurate ...                                              |
|      Therefore set LREAL=.FALSE. in the  INCAR file                         |
|                                                                             |
 ----------------------------------------------------------------------------- 

 LDA part: xc-table for Pade appr. of Perdew
 POSCAR found type information on POSCAR  S  H 
 POSCAR found :  2 types and       3 ions
 POSCAR, INCAR and KPOINTS ok, starting setup
 FFT: planning ...
 WAVECAR not read
 entering main loop
       N       E                     dE             d eps       ncg     rms          rms(c)
DAV:   1     0.440511382715E+02    0.44051E+02   -0.14026E+03    64   0.235E+02
DAV:   2     0.266190122539E+01   -0.41389E+02   -0.41102E+02    64   0.539E+01
DAV:   3    -0.786394169885E+01   -0.10526E+02   -0.10514E+02    64   0.338E+01
DAV:   4    -0.833741453961E+01   -0.47347E+00   -0.47337E+00    84   0.925E+00
DAV:   5    -0.833801446218E+01   -0.59992E-03   -0.59991E-03    60   0.317E-01    0.797E+00
DAV:   6    -0.258707507030E+01    0.57509E+01   -0.18171E+01    52   0.165E+01    0.364E+00
DAV:   7    -0.762578880012E+01   -0.50387E+01   -0.33992E+00    56   0.759E+00    0.193E+00
DAV:   8    -0.957103226777E+01   -0.19452E+01   -0.91595E-01    72   0.350E+00    0.863E-01
DAV:   9    -0.103469884645E+02   -0.77596E+00   -0.31228E-01    56   0.209E+00    0.367E-01
DAV:  10    -0.106092101910E+02   -0.26222E+00   -0.49192E-02    64   0.875E-01    0.226E-01
DAV:  11    -0.109450124414E+02   -0.33580E+00   -0.28417E-02    48   0.572E-01    0.111E-01
DAV:  12    -0.110934919886E+02   -0.14848E+00   -0.16590E-02    72   0.346E-01    0.605E-02
DAV:  13    -0.111823936530E+02   -0.88902E-01   -0.54357E-03    60   0.217E-01    0.267E-02
DAV:  14    -0.111883603023E+02   -0.59666E-02   -0.35996E-04    52   0.878E-02    0.180E-02
DAV:  15    -0.111924747479E+02   -0.41144E-02   -0.30793E-04    52   0.705E-02    0.108E-02
DAV:  16    -0.111918190856E+02    0.65566E-03   -0.29614E-04    48   0.609E-02    0.865E-03
DAV:  17    -0.111926220376E+02   -0.80295E-03   -0.59299E-05    60   0.288E-02    0.632E-03
DAV:  18    -0.111955688813E+02   -0.29468E-02   -0.72123E-05    48   0.299E-02    0.319E-03
DAV:  19    -0.111959726761E+02   -0.40379E-03   -0.96557E-06    56   0.123E-02    0.158E-03
DAV:  20    -0.111960202093E+02   -0.47533E-04   -0.23451E-06    52   0.664E-03    0.110E-03
DAV:  21    -0.111960173259E+02    0.28835E-05   -0.18137E-06    60   0.556E-03    0.721E-04
DAV:  22    -0.111960660504E+02   -0.48725E-04   -0.80185E-07    52   0.435E-03    0.524E-04
DAV:  23    -0.111961181709E+02   -0.52120E-04   -0.57172E-07    48   0.345E-03    0.342E-04
DAV:  24    -0.111961360999E+02   -0.17929E-04   -0.36084E-07    48   0.223E-03    0.194E-04
DAV:  25    -0.111961373757E+02   -0.12758E-05   -0.84547E-08    68   0.130E-03    0.114E-04
DAV:  26    -0.111961407771E+02   -0.34014E-05   -0.30754E-08    56   0.635E-04    0.797E-05
DAV:  27    -0.111961423069E+02   -0.15298E-05   -0.15706E-08    60   0.419E-04    0.622E-05
DAV:  28    -0.111961434685E+02   -0.11617E-05   -0.11686E-08    52   0.355E-04    0.450E-05
DAV:  29    -0.111961435890E+02   -0.12043E-06   -0.14684E-09    60   0.143E-04    0.405E-05
DAV:  30    -0.111961437073E+02   -0.11839E-06   -0.93520E-10    56   0.109E-04    0.391E-05
DAV:  31    -0.111961437520E+02   -0.44642E-07   -0.15937E-10    56   0.752E-05    0.388E-05
DAV:  32    -0.111961437724E+02   -0.20436E-07    0.22635E-10    56   0.325E-05    0.385E-05
DAV:  33    -0.111961437969E+02   -0.24470E-07    0.16283E-10    48   0.439E-05    0.385E-05
DAV:  34    -0.111961438032E+02   -0.62732E-08    0.25322E-10    64   0.194E-05
   1 F= -.11196144E+02 E0= -.11196144E+02  d E =-.111961E+02  mag=     0.0000
quench:  g(F)=  0.000E+00 g(S)=  0.000E+00 dE (1.order)= 0.000E+00
 bond charge predicted
       N       E                     dE             d eps       ncg     rms          rms(c)
DAV:   1    -0.111961288635E+02    0.14933E-04   -0.11869E-03    56   0.150E-01    0.801E-03
DAV:   2    -0.111961326520E+02   -0.37885E-05   -0.49640E-05    48   0.431E-02    0.527E-03
DAV:   3    -0.111961324409E+02    0.21102E-06   -0.17918E-06    56   0.771E-03    0.240E-03
DAV:   4    -0.111961329156E+02   -0.47471E-06   -0.66137E-07    64   0.399E-03    0.610E-04
DAV:   5    -0.111961330324E+02   -0.11680E-06   -0.48636E-08    48   0.120E-03    0.216E-04
DAV:   6    -0.111961330509E+02   -0.18505E-07   -0.54514E-09    64   0.362E-04    0.932E-05
DAV:   7    -0.111961330592E+02   -0.82338E-08   -0.12286E-10    64   0.129E-04
   2 F= -.11196133E+02 E0= -.11196133E+02  d E =0.107440E-04  mag=     0.0000
quench:  g(F)=  0.000E+00 g(S)=  0.000E+00 dE (1.order)= 0.000E+00
 bond charge predicted
       N       E                     dE             d eps       ncg     rms          rms(c)
DAV:   1    -0.111961316745E+02    0.13764E-05   -0.23347E-03    48   0.203E-01    0.115E-02
DAV:   2    -0.111961401429E+02   -0.84684E-05   -0.11430E-04    48   0.534E-02    0.594E-03
DAV:   3    -0.111961398845E+02    0.25844E-06   -0.27382E-06    60   0.981E-03    0.351E-03
DAV:   4    -0.111961401366E+02   -0.25209E-06   -0.14140E-06    64   0.546E-03    0.762E-04
DAV:   5    -0.111961401621E+02   -0.25491E-07   -0.21700E-07    64   0.247E-03    0.505E-04
DAV:   6    -0.111961401285E+02    0.33508E-07   -0.19927E-08    64   0.682E-04    0.215E-04
DAV:   7    -0.111961401255E+02    0.30107E-08   -0.67055E-09    64   0.388E-04
   3 F= -.11196140E+02 E0= -.11196140E+02  d E =-.706636E-05  mag=     0.0000
quench:  g(F)=  0.000E+00 g(S)=  0.000E+00 dE (1.order)= 0.000E+00
 bond charge predicted
       N       E                     dE             d eps       ncg     rms          rms(c)
DAV:   1    -0.111961249091E+02    0.15219E-04   -0.23599E-03    64   0.210E-01    0.114E-02
DAV:   2    -0.111961311962E+02   -0.62871E-05   -0.94015E-05    48   0.556E-02    0.626E-03
DAV:   3    -0.111961305308E+02    0.66545E-06   -0.20461E-06    64   0.857E-03    0.313E-03
DAV:   4    -0.111961306262E+02   -0.95413E-07   -0.98922E-07    56   0.458E-03    0.594E-04
DAV:   5    -0.111961306526E+02   -0.26391E-07   -0.11590E-07    64   0.188E-03    0.344E-04
DAV:   6    -0.111961306339E+02    0.18716E-07   -0.19180E-08    64   0.595E-04    0.122E-04
DAV:   7    -0.111961306609E+02   -0.27041E-07   -0.20783E-09    64   0.280E-04    0.685E-05
DAV:   8    -0.111961306968E+02   -0.35944E-07   -0.40014E-10    64   0.141E-04    0.533E-05
DAV:   9    -0.111961307352E+02   -0.38332E-07   -0.19855E-10    64   0.897E-05    0.440E-05
DAV:  10    -0.111961308155E+02   -0.80365E-07   -0.18564E-09    56   0.138E-04    0.435E-05
DAV:  11    -0.111961308532E+02   -0.37659E-07   -0.95746E-11    64   0.710E-05    0.403E-05
DAV:  12    -0.111961308892E+02   -0.36045E-07   -0.73426E-11    48   0.694E-05    0.401E-05
DAV:  13    -0.111961309050E+02   -0.15729E-07    0.21148E-10    64   0.370E-05    0.399E-05
DAV:  14    -0.111961309228E+02   -0.17866E-07    0.15688E-10    48   0.402E-05    0.393E-05
DAV:  15    -0.111961309278E+02   -0.49642E-08    0.28135E-10    80   0.207E-05
   4 F= -.11196131E+02 E0= -.11196131E+02  d E =0.919773E-05  mag=     0.0000
quench:  g(F)=  0.000E+00 g(S)=  0.000E+00 dE (1.order)= 0.000E+00
 bond charge predicted
       N       E                     dE             d eps       ncg     rms          rms(c)
DAV:   1    -0.111961286877E+02    0.22351E-05   -0.14255E-03    48   0.188E-01    0.973E-03
DAV:   2    -0.111961328864E+02   -0.41987E-05   -0.64176E-05    56   0.465E-02    0.632E-03
DAV:   3    -0.111961326522E+02    0.23419E-06   -0.19973E-06    64   0.833E-03    0.315E-03
DAV:   4    -0.111961331551E+02   -0.50281E-06   -0.63669E-07    56   0.400E-03    0.732E-04
DAV:   5    -0.111961333095E+02   -0.15447E-06   -0.57363E-08    64   0.129E-03    0.223E-04
DAV:   6    -0.111961333234E+02   -0.13900E-07   -0.50633E-09    48   0.348E-04    0.118E-04
DAV:   7    -0.111961333443E+02   -0.20865E-07   -0.11770E-09    64   0.166E-04    0.509E-05
DAV:   8    -0.111961333663E+02   -0.21996E-07   -0.21238E-10    56   0.882E-05    0.485E-05
DAV:   9    -0.111961334073E+02   -0.41019E-07   -0.37210E-10    56   0.902E-05    0.409E-05
DAV:  10    -0.111961334386E+02   -0.31320E-07   -0.10629E-10    56   0.737E-05    0.423E-05
DAV:  11    -0.111961334583E+02   -0.19650E-07    0.16776E-10    64   0.474E-05    0.399E-05
DAV:  12    -0.111961334802E+02   -0.21968E-07    0.14800E-10    64   0.427E-05    0.386E-05
DAV:  13    -0.111961334962E+02   -0.15940E-07    0.22367E-10    64   0.304E-05    0.385E-05
DAV:  14    -0.111961335075E+02   -0.11322E-07    0.25084E-10    64   0.285E-05    0.384E-05
DAV:  15    -0.111961335111E+02   -0.35989E-08    0.27759E-10    64   0.162E-05
   5 F= -.11196134E+02 E0= -.11196134E+02  d E =-.258330E-05  mag=     0.0000
quench:  g(F)=  0.000E+00 g(S)=  0.000E+00 dE (1.order)= 0.000E+00
 bond charge predicted
       N       E                     dE             d eps       ncg     rms          rms(c)
DAV:   1    -0.111961397598E+02   -0.62523E-05   -0.65545E-04    64   0.154E-01    0.636E-03
DAV:   2    -0.111961401949E+02   -0.43507E-06   -0.70500E-06    64   0.158E-02    0.421E-03
DAV:   3    -0.111961404779E+02   -0.28301E-06   -0.75722E-07    64   0.428E-03    0.724E-04
DAV:   4    -0.111961404198E+02    0.58145E-07   -0.82455E-08    64   0.158E-03    0.390E-04
DAV:   5    -0.111961403677E+02    0.52092E-07   -0.20837E-08    64   0.651E-04    0.124E-04
DAV:   6    -0.111961403694E+02   -0.17110E-08   -0.28016E-09    64   0.298E-04
   6 F= -.11196140E+02 E0= -.11196140E+02  d E =-.685828E-05  mag=    -0.0000
quench:  g(F)=  0.000E+00 g(S)=  0.000E+00 dE (1.order)= 0.000E+00
 bond charge predicted
       N       E                     dE             d eps       ncg     rms          rms(c)
DAV:   1    -0.111961405289E+02   -0.16124E-06   -0.67218E-04    64   0.152E-01    0.692E-03
DAV:   2    -0.111961409029E+02   -0.37396E-06   -0.62651E-06    56   0.147E-02    0.455E-03
DAV:   3    -0.111961414242E+02   -0.52136E-06   -0.14445E-06    56   0.576E-03    0.826E-04
DAV:   4    -0.111961413875E+02    0.36751E-07   -0.18576E-07    64   0.237E-03    0.494E-04
DAV:   5    -0.111961413709E+02    0.16544E-07   -0.45778E-08    64   0.101E-03    0.155E-04
DAV:   6    -0.111961413864E+02   -0.15507E-07   -0.58261E-09    64   0.631E-04    0.916E-05
DAV:   7    -0.111961413942E+02   -0.77718E-08   -0.30346E-09    64   0.477E-04
   7 F= -.11196141E+02 E0= -.11196141E+02  d E =-.102483E-05  mag=     0.0000
quench:  g(F)=  0.000E+00 g(S)=  0.000E+00 dE (1.order)= 0.000E+00
 bond charge predicted
       N       E                     dE             d eps       ncg     rms          rms(c)
DAV:   1    -0.111961423390E+02   -0.95258E-06   -0.65842E-04    64   0.150E-01    0.591E-03
DAV:   2    -0.111961424283E+02   -0.89230E-07   -0.63894E-06    56   0.150E-02    0.392E-03
DAV:   3    -0.111961426178E+02   -0.18957E-06   -0.13533E-06    48   0.565E-03    0.864E-04
DAV:   4    -0.111961426075E+02    0.10339E-07   -0.20497E-07    56   0.240E-03    0.524E-04
DAV:   5    -0.111961425747E+02    0.32800E-07   -0.33400E-08    48   0.858E-04    0.146E-04
DAV:   6    -0.111961425743E+02    0.42814E-09   -0.59340E-09    56   0.442E-04
   8 F= -.11196143E+02 E0= -.11196143E+02  d E =-.118004E-05  mag=     0.0000
quench:  g(F)=  0.000E+00 g(S)=  0.000E+00 dE (1.order)= 0.000E+00
 bond charge predicted
       N       E                     dE             d eps       ncg     rms          rms(c)
DAV:   1    -0.111961437800E+02   -0.12053E-05   -0.65773E-04    48   0.154E-01    0.634E-03
DAV:   2    -0.111961439580E+02   -0.17806E-06   -0.72773E-06    48   0.159E-02    0.420E-03
DAV:   3    -0.111961440221E+02   -0.64088E-07   -0.71738E-07    56   0.422E-03    0.711E-04
DAV:   4    -0.111961440195E+02    0.26633E-08   -0.83225E-08    64   0.173E-03
   9 F= -.11196144E+02 E0= -.11196144E+02  d E =-.144521E-05  mag=     0.0000
quench:  g(F)=  0.000E+00 g(S)=  0.000E+00 dE (1.order)= 0.000E+00
 bond charge predicted
       N       E                     dE             d eps       ncg     rms          rms(c)
DAV:   1    -0.111961312960E+02    0.12726E-04   -0.69738E-04    56   0.154E-01    0.782E-03
DAV:   2    -0.111961316147E+02   -0.31865E-06   -0.88927E-06    64   0.169E-02    0.527E-03
DAV:   3    -0.111961322495E+02   -0.63481E-06   -0.24153E-06    48   0.743E-03    0.100E-03
DAV:   4    -0.111961321968E+02    0.52718E-07   -0.31299E-07    56   0.357E-03    0.555E-04
DAV:   5    -0.111961321633E+02    0.33407E-07   -0.78567E-08    48   0.183E-03    0.191E-04
DAV:   6    -0.111961322095E+02   -0.46133E-07   -0.29103E-08    80   0.153E-03    0.119E-04
DAV:   7    -0.111961322312E+02   -0.21746E-07   -0.52051E-09    64   0.638E-04    0.683E-05
DAV:   8    -0.111961322393E+02   -0.80457E-08   -0.87385E-10    64   0.202E-04
  10 F= -.11196132E+02 E0= -.11196132E+02  d E =0.117802E-04  mag=     0.0000
quench:  g(F)=  0.000E+00 g(S)=  0.000E+00 dE (1.order)= 0.000E+00
--------------------------------------------------------
>>>  Job finished at Mon Jul 11 12:00:40 EDT 2022
