 vasp.5.4.4.18Apr17-6-g9f103f2a35 (build Dec 31 2018 11:41:54) complex          
  
 executed on             LinuxIFC date 2022.07.11  11:56:34
 running on   16 total cores
 distrk:  each k-point on   16 cores,    1 groups
 distr:  one band on NCORES_PER_BAND=   4 cores,    4 groups


--------------------------------------------------------------------------------------------------------


 INCAR:
 POTCAR:    PAW_PBE S 17Jan2003                   
 POTCAR:   PAW_PBE H 15Jun2001                    
 POTCAR:    PAW_PBE S 17Jan2003                   
   VRHFIN =S : s2p4                                                             
   LEXCH  = PE                                                                  
   EATOM  =   276.8230 eV,   20.3459 Ry                                         
                                                                                
   TITEL  = PAW_PBE S 17Jan2003                                                 
   LULTRA =        F    use ultrasoft PP ?                                      
   IUNSCR =        1    unscreen: 0-lin 1-nonlin 2-no                           
   RPACOR =    1.500    partial core radius                                     
   POMASS =   32.066; ZVAL   =    6.000    mass and valenz                      
   RCORE  =    1.900    outmost cutoff radius                                   
   RWIGS  =    2.200; RWIGS  =    1.164    wigner-seitz radius (au A)           
   ENMAX  =  280.000; ENMIN  =  194.016 eV                                      
   ICORE  =        2    local potential                                         
   LCOR   =        T    correct aug charges                                     
   LPAW   =        T    paw PP                                                  
   EAUG   =  335.092                                                            
   DEXC   =     .000                                                            
   RMAX   =    2.867    core radius for proj-oper                               
   RAUG   =    1.300    factor for augmentation sphere                          
   RDEP   =    1.954    radius for radial grids                                 
   QCUT   =   -4.360; QGAM   =    8.721    optimization parameters              
                                                                                
   Description                                                                  
     l     E      TYP  RCUT    TYP  RCUT                                        
     0   .000     23  1.900                                                     
     0   .000     23  1.900                                                     
     1   .000     23  1.900                                                     
     1   .000     23  1.900                                                     
     2   .000     23  1.900                                                     
  local pseudopotential read in
  partial core-charges read in
  atomic valenz-charges read in
  non local Contribution for L=           0  read in
    real space projection operators read in
  non local Contribution for L=           0  read in
    real space projection operators read in
  non local Contribution for L=           1  read in
    real space projection operators read in
  non local Contribution for L=           1  read in
    real space projection operators read in
    PAW grid and wavefunctions read in
 
   number of l-projection  operators is LMAX  =           4
   number of lm-projection operators is LMMAX =           8
 
 POTCAR:   PAW_PBE H 15Jun2001                    
   VRHFIN =H: ultrasoft test                                                    
   LEXCH  = PE                                                                  
   EATOM  =    12.4884 eV,     .9179 Ry                                         
                                                                                
   TITEL  = PAW_PBE H 15Jun2001                                                 
   LULTRA =        F    use ultrasoft PP ?                                      
   IUNSCR =        0    unscreen: 0-lin 1-nonlin 2-no                           
   RPACOR =     .000    partial core radius                                     
   POMASS =    1.000; ZVAL   =    1.000    mass and valenz                      
   RCORE  =    1.100    outmost cutoff radius                                   
   RWIGS  =     .700; RWIGS  =     .370    wigner-seitz radius (au A)           
   ENMAX  =  250.000; ENMIN  =  200.000 eV                                      
   RCLOC  =     .701    cutoff for local pot                                    
   LCOR   =        T    correct aug charges                                     
   LPAW   =        T    paw PP                                                  
   EAUG   =  400.000                                                            
   RMAX   =    2.174    core radius for proj-oper                               
   RAUG   =    1.200    factor for augmentation sphere                          
   RDEP   =    1.112    radius for radial grids                                 
   QCUT   =   -5.749; QGAM   =   11.498    optimization parameters              
                                                                                
   Description                                                                  
     l     E      TYP  RCUT    TYP  RCUT                                        
     0   .000     23  1.100                                                     
     0   .500     23  1.100                                                     
     1  -.300     23  1.100                                                     
  local pseudopotential read in
  atomic valenz-charges read in
  non local Contribution for L=           0  read in
    real space projection operators read in
  non local Contribution for L=           0  read in
    real space projection operators read in
  non local Contribution for L=           1  read in
    real space projection operators read in
    PAW grid and wavefunctions read in
 
   number of l-projection  operators is LMAX  =           3
   number of lm-projection operators is LMMAX =           5
 

 ----------------------------------------------------------------------------- 
|                                                                             |
|  ADVICE TO THIS USER RUNNING 'VASP/VAMP'   (HEAR YOUR MASTER'S VOICE ...):  |
|                                                                             |
|      You have a (more or less) 'small supercell' and for smaller cells      |
|      it is recommended  to use the reciprocal-space projection scheme!      |
|      The real space optimization is not  efficient for small cells and it   |
|      is also less accurate ...                                              |
|      Therefore set LREAL=.FALSE. in the  INCAR file                         |
|                                                                             |
 ----------------------------------------------------------------------------- 

 Optimization of the real space projectors (new method)

 maximal supplied QI-value         = 19.84
 optimisation between [QCUT,QGAM] = [ 10.12, 20.44] = [ 28.68,116.96] Ry 
 Optimized for a Real-space Cutoff    1.42 Angstroem

   l    n(q)    QCUT    max X(q) W(low)/X(q) W(high)/X(q)  e(spline) 
   0      9    10.119     5.487    0.15E-04    0.47E-05    0.66E-08
   0      9    10.119    85.627    0.51E-04    0.92E-04    0.63E-07
   1      8    10.119     3.530    0.37E-05    0.76E-05    0.28E-07
   1      8    10.119    42.714    0.16E-03    0.16E-03    0.23E-06
 Optimization of the real space projectors (new method)

 maximal supplied QI-value         = 34.20
 optimisation between [QCUT,QGAM] = [  9.92, 20.18] = [ 27.55,114.04] Ry 
 Optimized for a Real-space Cutoff    1.34 Angstroem

   l    n(q)    QCUT    max X(q) W(low)/X(q) W(high)/X(q)  e(spline) 
   0      8     9.919     4.436    0.31E-04    0.59E-04    0.66E-07
   0      8     9.919    16.131    0.16E-03    0.20E-03    0.35E-06
   1      8     9.919     4.654    0.19E-03    0.46E-03    0.40E-06
  PAW_PBE S 17Jan2003                   :
 energy of atom  1       EATOM= -276.8230
 kinetic energy error for atom=    0.0046 (will be added to EATOM!!)
 PAW_PBE H 15Jun2001                    :
 energy of atom  2       EATOM=  -12.4884
 kinetic energy error for atom=    0.0098 (will be added to EATOM!!)
 
 
 POSCAR: O  C                                    
  positions in direct lattice
  velocities in cartesian coordinates
 exchange correlation table for  LEXCH =        8
   RHO(1)=    0.500       N(1)  =     2000
   RHO(2)=  100.500       N(2)  =     4000

 VTST: version 3.2, (02/03/18)

 CHAIN: initializing optimizer
 
 OPT: Using VASP Quick-Min optimizer
 CHAIN: Read ICHAIN            1
 
 POSCAR: O  C                                    
  positions in direct lattice
  velocities in cartesian coordinates
 CHAIN: Running the Dynamical Matrix
 


--------------------------------------------------------------------------------------------------------


 ion  position               nearest neighbor table
   1  0.757  0.412  0.709-   3 1.35   2 1.35
   2  0.868  0.466  0.690-   1 1.35
   3  0.730  0.420  0.622-   1 1.35
 
  LATTYP: Found a hexagonal cell.
 ALAT       =    13.6750001907
 C/A-ratio  =     1.0798537472
  
  Lattice vectors:
  
 A1 = (  13.6750001907,   0.0000000000,   0.0000000000)
 A2 = (  -6.8375000954,  11.8428975619,   0.0000000000)
 A3 = (   0.0000000000,   0.0000000000,  14.7670001984)


Analysis of symmetry for initial positions (statically):
=====================================================================
 Subroutine PRICEL returns:
 Original cell was already a primitive cell.
 

 Routine SETGRP: Setting up the symmetry group for a 
 hexagonal supercell.


 Subroutine GETGRP returns: Found  1 space group operations
 (whereof  1 operations were pure point group operations)
 out of a pool of 24 trial point group operations.


The static configuration has the point symmetry C_1 .


Analysis of symmetry for dynamics (positions and initial velocities):
=====================================================================
 Subroutine PRICEL returns:
 Original cell was already a primitive cell.
 

 Routine SETGRP: Setting up the symmetry group for a 
 hexagonal supercell.


 Subroutine GETGRP returns: Found  1 space group operations
 (whereof  1 operations were pure point group operations)
 out of a pool of 24 trial point group operations.


The dynamic configuration has the point symmetry C_1 .


Analysis of structural, dynamic, and magnetic symmetry:
=====================================================================
 Subroutine PRICEL returns:
 Original cell was already a primitive cell.
 

 Routine SETGRP: Setting up the symmetry group for a 
 hexagonal supercell.


 Subroutine GETGRP returns: Found  1 space group operations
 (whereof  1 operations were pure point group operations)
 out of a pool of 24 trial point group operations.


The magnetic configuration has the point symmetry C_1 .


 Subroutine INISYM returns: Found  1 space group operations
 (whereof  1 operations are pure point group operations),
 and found     1 'primitive' translations

 
 
 KPOINTS: Gamma points only                       
  k-points in reciprocal lattice
Space group operators:
 irot       det(A)        alpha          n_x          n_y          n_z        tau_x        tau_y        tau_z
    1     1.000000     0.000000     1.000000     0.000000     0.000000     0.000000     0.000000     0.000000


--------------------------------------------------------------------------------------------------------




 Dimension of arrays:
   k-points           NKPTS =      1   k-points in BZ     NKDIM =      1   number of bands    NBANDS=     12
   number of dos      NEDOS =    301   number of ions     NIONS =      3
   non local maximal  LDIM  =      4   non local SUM 2l+1 LMDIM =      8
   total plane-waves  NPLWV = 777600
   max r-space proj   IRMAX =   3965   max aug-charges    IRDMAX=  82140
   dimension x,y,z NGX =    90 NGY =   90 NGZ =   96
   dimension x,y,z NGXF=   180 NGYF=  180 NGZF=  192
   support grid    NGXF=   360 NGYF=  360 NGZF=  384
   ions per type =               1   2
   NGX,Y,Z   is equivalent  to a cutoff of  10.94, 10.94, 10.81 a.u.
   NGXF,Y,Z  is equivalent  to a cutoff of  21.88, 21.88, 21.62 a.u.

 SYSTEM =  zeolite                                 
 POSCAR =  O  C                                    

 Startparameter for this run:
   NWRITE =      2    write-flag & timer
   PREC   = acc       normal or accurate (medium, high low for compatibility)
   ISTART =      0    job   : 0-new  1-cont  2-samecut
   ICHARG =      2    charge: 1-file 2-atom 10-const
   ISPIN  =      2    spin polarized calculation?
   LNONCOLLINEAR =      F non collinear calculations
   LSORBIT =      F    spin-orbit coupling
   INIWAV =      1    electr: 0-lowe 1-rand  2-diag
   LASPH  =      F    aspherical Exc in radial PAW
   METAGGA=      F    non-selfconsistent MetaGGA calc.

 Electronic Relaxation 1
   ENCUT  =  400.0 eV  29.40 Ry    5.42 a.u.  22.30 22.30 24.08*2*pi/ulx,y,z
   ENINI  =  400.0     initial cutoff
   ENAUG  =  400.0 eV  augmentation charge cutoff
   NELM   =    100;   NELMIN=  2; NELMDL= -5     # of ELM steps 
   EDIFF  = 0.1E-07   stopping-criterion for ELM
   LREAL  =      T    real-space projection
   NLSPLINE    = F    spline interpolate recip. space projectors
   LCOMPAT=      F    compatible to vasp.4.4
   GGA_COMPAT  = T    GGA compatible to vasp.4.4-vasp.4.6
   LMAXPAW     = -100 max onsite density
   LMAXMIX     =    2 max onsite mixed and CHGCAR
   VOSKOWN=      0    Vosko Wilk Nusair interpolation
   ROPT   =   -0.00025  -0.00025
 Ionic relaxation
   EDIFFG = -.1E-07   stopping-criterion for IOM
   NSW    =     10    number of steps for IOM
   NBLOCK =      1;   KBLOCK =     10    inner block; outer block 
   IBRION =      3    ionic relax: 0-MD 1-quasi-New 2-CG
   NFREE  =      0    steps in history (QN), initial steepest desc. (CG)
   ISIF   =      2    stress and relaxation
   IWAVPR =     11    prediction:  0-non 1-charg 2-wave 3-comb
   ISYM   =      2    0-nonsym 1-usesym 2-fastsym
   LCORR  =      T    Harris-Foulkes like correction to forces

   POTIM  = 0.0000    time-step for ionic-motion
   TEIN   =    0.0    initial temperature
   TEBEG  =    0.0;   TEEND  =   0.0 temperature during run
   SMASS  =  -3.00    Nose mass-parameter (am)
   estimated Nose-frequenzy (Omega)   =  0.10E-29 period in steps =  0.00 mass=  -0.427E-26a.u.
   SCALEE = 1.0000    scale energy and forces
   NPACO  =    256;   APACO  = 16.0  distance and # of slots for P.C.
   PSTRESS=    0.0 pullay stress

  Mass of Ions in am
   POMASS =  32.07  1.00
  Ionic Valenz
   ZVAL   =   6.00  1.00
  Atomic Wigner-Seitz radii
   RWIGS  =  -1.00 -1.00
  virtual crystal weights 
   VCA    =   1.00  1.00
   NELECT =       8.0000    total number of electrons
   NUPDOWN=      -1.0000    fix difference up-down

 DOS related values:
   EMIN   =  10.00;   EMAX   =-10.00  energy-range for DOS
   EFERMI =   0.00
   ISMEAR =     0;   SIGMA  =   0.05  broadening in eV -4-tet -1-fermi 0-gaus

 Electronic relaxation 2 (details)
   IALGO  =     38    algorithm
   LDIAG  =      T    sub-space diagonalisation (order eigenvalues)
   LSUBROT=      F    optimize rotation matrix (better conditioning)
   TURBO    =      0    0=normal 1=particle mesh
   IRESTART =      0    0=no restart 2=restart with 2 vectors
   NREBOOT  =      0    no. of reboots
   NMIN     =      0    reboot dimension
   EREF     =   0.00    reference energy to select bands
   IMIX   =      4    mixing-type and parameters
     AMIX     =   0.40;   BMIX     =  1.00
     AMIX_MAG =   1.60;   BMIX_MAG =  1.00
     AMIN     =   0.10
     WC   =   100.;   INIMIX=   1;  MIXPRE=   1;  MAXMIX= -45

 Intra band minimization:
   WEIMIN = 0.0010     energy-eigenvalue tresh-hold
   EBREAK =  0.21E-10  absolut break condition
   DEPER  =   0.30     relativ break condition  

   TIME   =   0.40     timestep for ELM

  volume/ion in A,a.u.               =     797.18      5379.64
  Fermi-wavevector in a.u.,A,eV,Ry     =   0.244838  0.462677  0.815611  0.059946
  Thomas-Fermi vector in A             =   1.055099
 
 Write flags
   LWAVE        =      F    write WAVECAR
   LDOWNSAMPLE  =      F    k-point downsampling of WAVECAR
   LCHARG       =      F    write CHGCAR
   LVTOT        =      F    write LOCPOT, total local potential
   LVHAR        =      F    write LOCPOT, Hartree potential only
   LELF         =      F    write electronic localiz. function (ELF)
   LORBIT       =     11    0 simple, 1 ext, 2 COOP (PROOUT), +10 PAW based schemes


 Dipole corrections
   LMONO  =      F    monopole corrections only (constant potential shift)
   LDIPOL =      F    correct potential (dipole corrections)
   IDIPOL =      0    1-x, 2-y, 3-z, 4-all directions 
   EPSILON=  1.0000000 bulk dielectric constant

 Exchange correlation treatment:
   GGA     =    --    GGA type
   LEXCH   =     8    internal setting for exchange type
   VOSKOWN=      0    Vosko Wilk Nusair interpolation
   LHFCALC =     F    Hartree Fock is set to
   LHFONE  =     F    Hartree Fock one center treatment
   AEXX    =    0.0000 exact exchange contribution

 Linear response parameters
   LEPSILON=     F    determine dielectric tensor
   LRPA    =     F    only Hartree local field effects (RPA)
   LNABLA  =     F    use nabla operator in PAW spheres
   LVEL    =     F    velocity operator in full k-point grid
   LINTERFAST=   F  fast interpolation
   KINTER  =     0    interpolate to denser k-point grid
   CSHIFT  =0.1000    complex shift for real part using Kramers Kronig
   OMEGAMAX=  -1.0    maximum frequency
   DEG_THRESHOLD= 0.2000000E-02 threshold for treating states as degnerate
   RTIME   =   -0.100 relaxation time in fs
  (WPLASMAI=    0.000 imaginary part of plasma frequency in eV, 0.658/RTIME)
   DFIELD  = 0.0000000 0.0000000 0.0000000 field for delta impulse in time
 
 Orbital magnetization related:
   ORBITALMAG=     F  switch on orbital magnetization
   LCHIMAG   =     F  perturbation theory with respect to B field
   DQ        =  0.001000  dq finite difference perturbation B field
   LLRAUG    =     F  two centre corrections for induced B field



--------------------------------------------------------------------------------------------------------


 quickmin algorithm: (dynamic with friction)
 charge density and potential will be updated during run
 spin polarized calculation
 Variant of blocked Davidson
 Davidson routine will perform the subspace rotation
 perform sub-space diagonalisation
    after iterative eigenvector-optimisation
 modified Broyden-mixing scheme, WC =      100.0
 initial mixing is a Kerker type mixing with AMIX =  0.4000 and BMIX =      1.0000
 Hartree-type preconditioning will be used
 using additional bands            8
 real space projection scheme for non local part
 use partial core corrections
 calculate Harris-corrections to forces 
   (improved forces if not selfconsistent)
 use gradient corrections 
 use of overlap-Matrix (Vanderbilt PP)
 Gauss-broadening in eV      SIGMA  =   0.05


--------------------------------------------------------------------------------------------------------


  energy-cutoff  :      400.00
  volume of cell :     2391.54
      direct lattice vectors                 reciprocal lattice vectors
    13.675000191  0.000000000  0.000000000     0.073126142  0.042219398  0.000000000
    -6.837500095 11.842897562  0.000000000     0.000000000  0.084438795  0.000000000
     0.000000000  0.000000000 14.767000198     0.000000000  0.000000000  0.067718561

  length of vectors
    13.675000191 13.675000191 14.767000198     0.084438795  0.084438795  0.067718561


 
 k-points in units of 2pi/SCALE and weight: Gamma points only                       
   0.00000000  0.00000000  0.00000000       1.000
 
 k-points in reciprocal lattice and weights: Gamma points only                       
   0.00000000  0.00000000  0.00000000       1.000
 
 position of ions in fractional coordinates (direct lattice) 
   0.75651679  0.41247285  0.70881264
   0.86787742  0.46646745  0.68955229
   0.73020336  0.41973175  0.62194195
 
 position of ions in cartesian coordinates  (Angst):
   7.52508409  4.88487374 10.46703641
   8.67875263  5.52432623 10.18261885
   7.11561523  4.97084008  9.18421691
 


--------------------------------------------------------------------------------------------------------


 k-point  1 :   0.0000 0.0000 0.0000  plane waves:   43405

 maximum and minimum number of plane-waves per node :     10852    10850

 maximum number of plane-waves:     43405
 maximum index in each direction: 
   IXMAX=   22   IYMAX=   22   IZMAX=   24
   IXMIN=  -22   IYMIN=  -22   IZMIN=  -24


 real space projection operators:
  total allocation   :        485.35 KBytes
  max/ min on nodes  :        121.99        120.48


 parallel 3D FFT for wavefunctions:
    minimum data exchange during FFTs selected (reduces bandwidth)
 parallel 3D FFT for charge:
    minimum data exchange during FFTs selected (reduces bandwidth)


 total amount of memory used by VASP MPI-rank0   144807. kBytes
=======================================================================

   base      :      30000. kBytes
   nonlr-proj:        348. kBytes
   fftplans  :      63994. kBytes
   grid      :      49417. kBytes
   one-center:          6. kBytes
   wavefun   :       1042. kBytes
 
     INWAV:  cpu time    0.0000: real time    0.0000
 Broyden mixing: mesh for mixing (old mesh)
   NGX = 45   NGY = 45   NGZ = 49
  (NGX  =180   NGY  =180   NGZ  =192)
  gives a total of  99225 points

 initial charge density was supplied:
 charge density of overlapping atoms calculated
 number of electron       8.0000000 magnetization       3.0000000
 keeping initial charge density in first step


--------------------------------------------------------------------------------------------------------


 Maximum index for non-local projection operator          959
 Maximum index for augmentation-charges         4874 (set IRDMAX)


--------------------------------------------------------------------------------------------------------


 First call to EWALD:  gamma=   0.133
 Maximum number of real-space cells 3x 3x 3
 Maximum number of reciprocal cells 3x 3x 3

    FEWALD:  cpu time    0.0013: real time    0.0013


--------------------------------------- Iteration      1(   1)  ---------------------------------------


    POTLOK:  cpu time    0.5327: real time    0.5613
    SETDIJ:  cpu time    0.2673: real time    0.2679
     EDDAV:  cpu time    0.3133: real time    0.3142
       DOS:  cpu time    0.0001: real time    0.0001
    --------------------------------------------
      LOOP:  cpu time    1.1135: real time    1.1435

 eigenvalue-minimisations  :    64
 total energy-change (2. order) : 0.4405114E+02  (-0.1402616E+03)
 number of electron       8.0000000 magnetization       3.0000000
 augmentation part        8.0000000 magnetization       3.0000000

 Free energy of the ion-electron system (eV)
  ---------------------------------------------------
  alpha Z        PSCENC =         0.10045428
  Ewald energy   TEWEN  =        37.98610620
  -Hartree energ DENC   =      -267.75938200
  -exchange      EXHF   =         0.00000000
  -V(xc)+E(xc)   XCENC  =        17.12908147
  PAW double counting   =       100.19553197      -97.01232152
  entropy T*S    EENTRO =        -0.00000000
  eigenvalues    EBANDS =       -48.36400022
  atomic energy  EATOM  =       301.77566810
  Solvation  Ediel_sol  =         0.00000000
  ---------------------------------------------------
  free energy    TOTEN  =        44.05113827 eV

  energy without entropy =       44.05113827  energy(sigma->0) =       44.05113827


--------------------------------------------------------------------------------------------------------




--------------------------------------- Iteration      1(   2)  ---------------------------------------


     EDDAV:  cpu time    0.3121: real time    0.3207
       DOS:  cpu time    0.0001: real time    0.0001
    --------------------------------------------
      LOOP:  cpu time    0.3122: real time    0.3208

 eigenvalue-minimisations  :    64
 total energy-change (2. order) :-0.4138924E+02  (-0.4110196E+02)
 number of electron       8.0000000 magnetization       3.0000000
 augmentation part        8.0000000 magnetization       3.0000000

 Free energy of the ion-electron system (eV)
  ---------------------------------------------------
  alpha Z        PSCENC =         0.10045428
  Ewald energy   TEWEN  =        37.98610620
  -Hartree energ DENC   =      -267.75938200
  -exchange      EXHF   =         0.00000000
  -V(xc)+E(xc)   XCENC  =        17.12908147
  PAW double counting   =       100.19553197      -97.01232152
  entropy T*S    EENTRO =        -0.00000000
  eigenvalues    EBANDS =       -89.75323727
  atomic energy  EATOM  =       301.77566810
  Solvation  Ediel_sol  =         0.00000000
  ---------------------------------------------------
  free energy    TOTEN  =         2.66190123 eV

  energy without entropy =        2.66190123  energy(sigma->0) =        2.66190123


--------------------------------------------------------------------------------------------------------




--------------------------------------- Iteration      1(   3)  ---------------------------------------


     EDDAV:  cpu time    0.3073: real time    0.3082
       DOS:  cpu time    0.0001: real time    0.0001
    --------------------------------------------
      LOOP:  cpu time    0.3074: real time    0.3082

 eigenvalue-minimisations  :    64
 total energy-change (2. order) :-0.1052584E+02  (-0.1051445E+02)
 number of electron       8.0000000 magnetization       3.0000000
 augmentation part        8.0000000 magnetization       3.0000000

 Free energy of the ion-electron system (eV)
  ---------------------------------------------------
  alpha Z        PSCENC =         0.10045428
  Ewald energy   TEWEN  =        37.98610620
  -Hartree energ DENC   =      -267.75938200
  -exchange      EXHF   =         0.00000000
  -V(xc)+E(xc)   XCENC  =        17.12908147
  PAW double counting   =       100.19553197      -97.01232152
  entropy T*S    EENTRO =        -0.00000000
  eigenvalues    EBANDS =      -100.27908019
  atomic energy  EATOM  =       301.77566810
  Solvation  Ediel_sol  =         0.00000000
  ---------------------------------------------------
  free energy    TOTEN  =        -7.86394170 eV

  energy without entropy =       -7.86394170  energy(sigma->0) =       -7.86394170


--------------------------------------------------------------------------------------------------------




--------------------------------------- Iteration      1(   4)  ---------------------------------------


     EDDAV:  cpu time    0.3845: real time    0.3856
       DOS:  cpu time    0.0001: real time    0.0001
    --------------------------------------------
      LOOP:  cpu time    0.3846: real time    0.3857

 eigenvalue-minimisations  :    84
 total energy-change (2. order) :-0.4734728E+00  (-0.4733740E+00)
 number of electron       8.0000000 magnetization       3.0000000
 augmentation part        8.0000000 magnetization       3.0000000

 Free energy of the ion-electron system (eV)
  ---------------------------------------------------
  alpha Z        PSCENC =         0.10045428
  Ewald energy   TEWEN  =        37.98610620
  -Hartree energ DENC   =      -267.75938200
  -exchange      EXHF   =         0.00000000
  -V(xc)+E(xc)   XCENC  =        17.12908147
  PAW double counting   =       100.19553197      -97.01232152
  entropy T*S    EENTRO =        -0.00000000
  eigenvalues    EBANDS =      -100.75255303
  atomic energy  EATOM  =       301.77566810
  Solvation  Ediel_sol  =         0.00000000
  ---------------------------------------------------
  free energy    TOTEN  =        -8.33741454 eV

  energy without entropy =       -8.33741454  energy(sigma->0) =       -8.33741454


--------------------------------------------------------------------------------------------------------




--------------------------------------- Iteration      1(   5)  ---------------------------------------


     EDDAV:  cpu time    0.2930: real time    0.2939
       DOS:  cpu time    0.0001: real time    0.0001
    CHARGE:  cpu time    0.3022: real time    0.3029
    MIXING:  cpu time    0.0104: real time    0.0104
    --------------------------------------------
      LOOP:  cpu time    0.6057: real time    0.6073

 eigenvalue-minimisations  :    60
 total energy-change (2. order) :-0.5999226E-03  (-0.5999072E-03)
 number of electron       8.0000000 magnetization       2.2642137
 augmentation part       -0.8407199 magnetization       2.3009009

 Broyden mixing:
  rms(total) = 0.79713E+00    rms(broyden)= 0.79703E+00
  rms(prec ) = 0.83536E+00
  weight for this iteration     100.00

 Free energy of the ion-electron system (eV)
  ---------------------------------------------------
  alpha Z        PSCENC =         0.10045428
  Ewald energy   TEWEN  =        37.98610620
  -Hartree energ DENC   =      -267.75938200
  -exchange      EXHF   =         0.00000000
  -V(xc)+E(xc)   XCENC  =        17.12908147
  PAW double counting   =       100.19553197      -97.01232152
  entropy T*S    EENTRO =        -0.00000000
  eigenvalues    EBANDS =      -100.75315296
  atomic energy  EATOM  =       301.77566810
  Solvation  Ediel_sol  =         0.00000000
  ---------------------------------------------------
  free energy    TOTEN  =        -8.33801446 eV

  energy without entropy =       -8.33801446  energy(sigma->0) =       -8.33801446


--------------------------------------------------------------------------------------------------------




--------------------------------------- Iteration      1(   6)  ---------------------------------------


    POTLOK:  cpu time    0.5125: real time    0.5139
    SETDIJ:  cpu time    0.2664: real time    0.2671
     EDDAV:  cpu time    0.2633: real time    0.2639
       DOS:  cpu time    0.0001: real time    0.0001
    CHARGE:  cpu time    0.3005: real time    0.3012
    MIXING:  cpu time    0.0108: real time    0.0109
    --------------------------------------------
      LOOP:  cpu time    1.3537: real time    1.3572

 eigenvalue-minimisations  :    52
 total energy-change (2. order) : 0.5750939E+01  (-0.1817104E+01)
 number of electron       8.0000000 magnetization       1.7055260
 augmentation part       -0.8051118 magnetization       1.7433282

 Broyden mixing:
  rms(total) = 0.36387E+00    rms(broyden)= 0.36371E+00
  rms(prec ) = 0.40300E+00
  weight for this iteration     100.00

 eigenvalues of (default mixing * dielectric matrix)
  average eigenvalue GAMMA=   0.9530
  0.9530

 Free energy of the ion-electron system (eV)
  ---------------------------------------------------
  alpha Z        PSCENC =         0.10045428
  Ewald energy   TEWEN  =        37.98610620
  -Hartree energ DENC   =      -274.41141080
  -exchange      EXHF   =         0.00000000
  -V(xc)+E(xc)   XCENC  =        24.00076067
  PAW double counting   =       115.07443834     -112.06547035
  entropy T*S    EENTRO =        -0.00000000
  eigenvalues    EBANDS =       -95.04762150
  atomic energy  EATOM  =       301.77566810
  Solvation  Ediel_sol  =         0.00000000
  ---------------------------------------------------
  free energy    TOTEN  =        -2.58707507 eV

  energy without entropy =       -2.58707507  energy(sigma->0) =       -2.58707507


--------------------------------------------------------------------------------------------------------




--------------------------------------- Iteration      1(   7)  ---------------------------------------


    POTLOK:  cpu time    0.5074: real time    0.5087
    SETDIJ:  cpu time    0.2668: real time    0.2675
     EDDAV:  cpu time    0.2777: real time    0.2784
       DOS:  cpu time    0.0001: real time    0.0001
    CHARGE:  cpu time    0.3030: real time    0.3038
    MIXING:  cpu time    0.0111: real time    0.0111
    --------------------------------------------
      LOOP:  cpu time    1.3661: real time    1.3696

 eigenvalue-minimisations  :    56
 total energy-change (2. order) :-0.5038714E+01  (-0.3399223E+00)
 number of electron       8.0000000 magnetization       1.0791205
 augmentation part       -0.7866358 magnetization       1.0993436

 Broyden mixing:
  rms(total) = 0.19294E+00    rms(broyden)= 0.19291E+00
  rms(prec ) = 0.21312E+00
  weight for this iteration     100.00

 eigenvalues of (default mixing * dielectric matrix)
  average eigenvalue GAMMA=   1.0644
  1.0082  1.1207

 Free energy of the ion-electron system (eV)
  ---------------------------------------------------
  alpha Z        PSCENC =         0.10045428
  Ewald energy   TEWEN  =        37.98610620
  -Hartree energ DENC   =      -278.98648905
  -exchange      EXHF   =         0.00000000
  -V(xc)+E(xc)   XCENC  =        20.25116991
  PAW double counting   =       121.65688002     -118.72286272
  entropy T*S    EENTRO =        -0.00000000
  eigenvalues    EBANDS =       -91.68671553
  atomic energy  EATOM  =       301.77566810
  Solvation  Ediel_sol  =         0.00000000
  ---------------------------------------------------
  free energy    TOTEN  =        -7.62578880 eV

  energy without entropy =       -7.62578880  energy(sigma->0) =       -7.62578880


--------------------------------------------------------------------------------------------------------




--------------------------------------- Iteration      1(   8)  ---------------------------------------


    POTLOK:  cpu time    0.5065: real time    0.5079
    SETDIJ:  cpu time    0.2665: real time    0.2671
     EDDAV:  cpu time    0.3380: real time    0.3389
       DOS:  cpu time    0.0001: real time    0.0001
    CHARGE:  cpu time    0.2995: real time    0.3003
    MIXING:  cpu time    0.0113: real time    0.0113
    --------------------------------------------
      LOOP:  cpu time    1.4219: real time    1.4255

 eigenvalue-minimisations  :    72
 total energy-change (2. order) :-0.1945243E+01  (-0.9159458E-01)
 number of electron       8.0000000 magnetization       0.6951104
 augmentation part       -0.7811105 magnetization       0.7050701

 Broyden mixing:
  rms(total) = 0.86337E-01    rms(broyden)= 0.86331E-01
  rms(prec ) = 0.94665E-01
  weight for this iteration     100.00

 eigenvalues of (default mixing * dielectric matrix)
  average eigenvalue GAMMA=   1.2217
  1.8478  1.0761  0.7411

 Free energy of the ion-electron system (eV)
  ---------------------------------------------------
  alpha Z        PSCENC =         0.10045428
  Ewald energy   TEWEN  =        37.98610620
  -Hartree energ DENC   =      -281.83153296
  -exchange      EXHF   =         0.00000000
  -V(xc)+E(xc)   XCENC  =        18.86510775
  PAW double counting   =       124.42432387     -121.50646422
  entropy T*S    EENTRO =        -0.00000000
  eigenvalues    EBANDS =       -89.38469527
  atomic energy  EATOM  =       301.77566810
  Solvation  Ediel_sol  =         0.00000000
  ---------------------------------------------------
  free energy    TOTEN  =        -9.57103227 eV

  energy without entropy =       -9.57103227  energy(sigma->0) =       -9.57103227


--------------------------------------------------------------------------------------------------------




--------------------------------------- Iteration      1(   9)  ---------------------------------------


    POTLOK:  cpu time    0.5093: real time    0.5108
    SETDIJ:  cpu time    0.2664: real time    0.2670
     EDDAV:  cpu time    0.2768: real time    0.2774
       DOS:  cpu time    0.0001: real time    0.0001
    CHARGE:  cpu time    0.3003: real time    0.3010
    MIXING:  cpu time    0.0116: real time    0.0117
    --------------------------------------------
      LOOP:  cpu time    1.3644: real time    1.3681

 eigenvalue-minimisations  :    56
 total energy-change (2. order) :-0.7759562E+00  (-0.3122825E-01)
 number of electron       8.0000000 magnetization       0.4534708
 augmentation part       -0.7832051 magnetization       0.4574441

 Broyden mixing:
  rms(total) = 0.36690E-01    rms(broyden)= 0.36685E-01
  rms(prec ) = 0.42863E-01
  weight for this iteration     100.00

 eigenvalues of (default mixing * dielectric matrix)
  average eigenvalue GAMMA=   1.2172
  2.0294  1.2342  0.8955  0.7099

 Free energy of the ion-electron system (eV)
  ---------------------------------------------------
  alpha Z        PSCENC =         0.10045428
  Ewald energy   TEWEN  =        37.98610620
  -Hartree energ DENC   =      -282.65810774
  -exchange      EXHF   =         0.00000000
  -V(xc)+E(xc)   XCENC  =        18.34127675
  PAW double counting   =       124.52918326     -121.61022690
  entropy T*S    EENTRO =        -0.00000000
  eigenvalues    EBANDS =       -88.81134241
  atomic energy  EATOM  =       301.77566810
  Solvation  Ediel_sol  =         0.00000000
  ---------------------------------------------------
  free energy    TOTEN  =       -10.34698846 eV

  energy without entropy =      -10.34698846  energy(sigma->0) =      -10.34698846


--------------------------------------------------------------------------------------------------------




--------------------------------------- Iteration      1(  10)  ---------------------------------------


    POTLOK:  cpu time    0.5061: real time    0.5075
    SETDIJ:  cpu time    0.2663: real time    0.2670
     EDDAV:  cpu time    0.3096: real time    0.3104
       DOS:  cpu time    0.0001: real time    0.0001
    CHARGE:  cpu time    0.2998: real time    0.3006
    MIXING:  cpu time    0.0119: real time    0.0119
    --------------------------------------------
      LOOP:  cpu time    1.3939: real time    1.3974

 eigenvalue-minimisations  :    64
 total energy-change (2. order) :-0.2622217E+00  (-0.4919233E-02)
 number of electron       8.0000000 magnetization       0.2441740
 augmentation part       -0.7846382 magnetization       0.2468631

 Broyden mixing:
  rms(total) = 0.22621E-01    rms(broyden)= 0.22620E-01
  rms(prec ) = 0.27029E-01
  weight for this iteration     100.00

 eigenvalues of (default mixing * dielectric matrix)
  average eigenvalue GAMMA=   1.2514
  2.1292  1.6836  0.9634  0.8318  0.6487

 Free energy of the ion-electron system (eV)
  ---------------------------------------------------
  alpha Z        PSCENC =         0.10045428
  Ewald energy   TEWEN  =        37.98610620
  -Hartree energ DENC   =      -282.57989968
  -exchange      EXHF   =         0.00000000
  -V(xc)+E(xc)   XCENC  =        18.11160291
  PAW double counting   =       123.82731614     -120.89847837
  entropy T*S    EENTRO =        -0.00000000
  eigenvalues    EBANDS =       -88.93197976
  atomic energy  EATOM  =       301.77566810
  Solvation  Ediel_sol  =         0.00000000
  ---------------------------------------------------
  free energy    TOTEN  =       -10.60921019 eV

  energy without entropy =      -10.60921019  energy(sigma->0) =      -10.60921019


--------------------------------------------------------------------------------------------------------




--------------------------------------- Iteration      1(  11)  ---------------------------------------


    POTLOK:  cpu time    0.5080: real time    0.5094
    SETDIJ:  cpu time    0.2658: real time    0.2664
     EDDAV:  cpu time    0.2480: real time    0.2486
       DOS:  cpu time    0.0001: real time    0.0001
    CHARGE:  cpu time    0.2997: real time    0.3004
    MIXING:  cpu time    0.0124: real time    0.0124
    --------------------------------------------
      LOOP:  cpu time    1.3339: real time    1.3373

 eigenvalue-minimisations  :    48
 total energy-change (2. order) :-0.3358023E+00  (-0.2841712E-02)
 number of electron       8.0000000 magnetization       0.1081418
 augmentation part       -0.7861636 magnetization       0.1095609

 Broyden mixing:
  rms(total) = 0.11097E-01    rms(broyden)= 0.11097E-01
  rms(prec ) = 0.14678E-01
  weight for this iteration     100.00

 eigenvalues of (default mixing * dielectric matrix)
  average eigenvalue GAMMA=   1.3651
  2.6234  2.0219  1.1960  0.9582  0.7622  0.6291

 Free energy of the ion-electron system (eV)
  ---------------------------------------------------
  alpha Z        PSCENC =         0.10045428
  Ewald energy   TEWEN  =        37.98610620
  -Hartree energ DENC   =      -282.45829065
  -exchange      EXHF   =         0.00000000
  -V(xc)+E(xc)   XCENC  =        17.78424404
  PAW double counting   =       123.21577733     -120.27835753
  entropy T*S    EENTRO =        -0.00000000
  eigenvalues    EBANDS =       -89.07061420
  atomic energy  EATOM  =       301.77566810
  Solvation  Ediel_sol  =         0.00000000
  ---------------------------------------------------
  free energy    TOTEN  =       -10.94501244 eV

  energy without entropy =      -10.94501244  energy(sigma->0) =      -10.94501244


--------------------------------------------------------------------------------------------------------




--------------------------------------- Iteration      1(  12)  ---------------------------------------


    POTLOK:  cpu time    0.5059: real time    0.5072
    SETDIJ:  cpu time    0.2685: real time    0.2692
     EDDAV:  cpu time    0.3497: real time    0.3506
       DOS:  cpu time    0.0001: real time    0.0001
    CHARGE:  cpu time    0.3032: real time    0.3040
    MIXING:  cpu time    0.0137: real time    0.0137
    --------------------------------------------
      LOOP:  cpu time    1.4411: real time    1.4447

 eigenvalue-minimisations  :    72
 total energy-change (2. order) :-0.1484795E+00  (-0.1659046E-02)
 number of electron       8.0000000 magnetization       0.0144066
 augmentation part       -0.7859034 magnetization       0.0149216

 Broyden mixing:
  rms(total) = 0.60490E-02    rms(broyden)= 0.60488E-02
  rms(prec ) = 0.91083E-02
  weight for this iteration     100.00

 eigenvalues of (default mixing * dielectric matrix)
  average eigenvalue GAMMA=   1.4287
  3.1057  2.2038  1.2838  1.1933  0.8646  0.7351  0.6148

 Free energy of the ion-electron system (eV)
  ---------------------------------------------------
  alpha Z        PSCENC =         0.10045428
  Ewald energy   TEWEN  =        37.98610620
  -Hartree energ DENC   =      -282.50742668
  -exchange      EXHF   =         0.00000000
  -V(xc)+E(xc)   XCENC  =        17.64393211
  PAW double counting   =       123.11723904     -120.17784612
  entropy T*S    EENTRO =        -0.00000000
  eigenvalues    EBANDS =       -89.03161892
  atomic energy  EATOM  =       301.77566810
  Solvation  Ediel_sol  =         0.00000000
  ---------------------------------------------------
  free energy    TOTEN  =       -11.09349199 eV

  energy without entropy =      -11.09349199  energy(sigma->0) =      -11.09349199


--------------------------------------------------------------------------------------------------------




--------------------------------------- Iteration      1(  13)  ---------------------------------------


    POTLOK:  cpu time    0.5087: real time    0.5158
    SETDIJ:  cpu time    0.2666: real time    0.2673
     EDDAV:  cpu time    0.2932: real time    0.2939
       DOS:  cpu time    0.0001: real time    0.0001
    CHARGE:  cpu time    0.3000: real time    0.3007
    MIXING:  cpu time    0.0130: real time    0.0131
    --------------------------------------------
      LOOP:  cpu time    1.3816: real time    1.3909

 eigenvalue-minimisations  :    60
 total energy-change (2. order) :-0.8890166E-01  (-0.5435663E-03)
 number of electron       8.0000000 magnetization      -0.0084033
 augmentation part       -0.7860437 magnetization      -0.0083703

 Broyden mixing:
  rms(total) = 0.26707E-02    rms(broyden)= 0.26705E-02
  rms(prec ) = 0.50426E-02
  weight for this iteration     100.00

 eigenvalues of (default mixing * dielectric matrix)
  average eigenvalue GAMMA=   1.4688
  3.6572  2.1969  1.6632  1.1710  0.9447  0.8065  0.6982  0.6125

 Free energy of the ion-electron system (eV)
  ---------------------------------------------------
  alpha Z        PSCENC =         0.10045428
  Ewald energy   TEWEN  =        37.98610620
  -Hartree energ DENC   =      -282.47552896
  -exchange      EXHF   =         0.00000000
  -V(xc)+E(xc)   XCENC  =        17.54751431
  PAW double counting   =       122.97988779     -120.03863255
  entropy T*S    EENTRO =        -0.00000000
  eigenvalues    EBANDS =       -89.05786282
  atomic energy  EATOM  =       301.77566810
  Solvation  Ediel_sol  =         0.00000000
  ---------------------------------------------------
  free energy    TOTEN  =       -11.18239365 eV

  energy without entropy =      -11.18239365  energy(sigma->0) =      -11.18239365


--------------------------------------------------------------------------------------------------------




--------------------------------------- Iteration      1(  14)  ---------------------------------------


    POTLOK:  cpu time    0.5052: real time    0.5066
    SETDIJ:  cpu time    0.2693: real time    0.2699
     EDDAV:  cpu time    0.2633: real time    0.2640
       DOS:  cpu time    0.0001: real time    0.0001
    CHARGE:  cpu time    0.3009: real time    0.3017
    MIXING:  cpu time    0.0134: real time    0.0135
    --------------------------------------------
      LOOP:  cpu time    1.3522: real time    1.3557

 eigenvalue-minimisations  :    52
 total energy-change (2. order) :-0.5966649E-02  (-0.3599603E-04)
 number of electron       8.0000000 magnetization      -0.0123348
 augmentation part       -0.7860877 magnetization      -0.0123941

 Broyden mixing:
  rms(total) = 0.17960E-02    rms(broyden)= 0.17959E-02
  rms(prec ) = 0.37890E-02
  weight for this iteration     100.00

 eigenvalues of (default mixing * dielectric matrix)
  average eigenvalue GAMMA=   1.4667
  3.7769  2.0676  2.0676  1.1609  1.1609  0.8698  0.7751  0.7079  0.6140

 Free energy of the ion-electron system (eV)
  ---------------------------------------------------
  alpha Z        PSCENC =         0.10045428
  Ewald energy   TEWEN  =        37.98610620
  -Hartree energ DENC   =      -282.49004968
  -exchange      EXHF   =         0.00000000
  -V(xc)+E(xc)   XCENC  =        17.54074742
  PAW double counting   =       122.98347253     -120.04216047
  entropy T*S    EENTRO =        -0.00000000
  eigenvalues    EBANDS =       -89.04259866
  atomic energy  EATOM  =       301.77566810
  Solvation  Ediel_sol  =         0.00000000
  ---------------------------------------------------
  free energy    TOTEN  =       -11.18836030 eV

  energy without entropy =      -11.18836030  energy(sigma->0) =      -11.18836030


--------------------------------------------------------------------------------------------------------




--------------------------------------- Iteration      1(  15)  ---------------------------------------


    POTLOK:  cpu time    0.5071: real time    0.5086
    SETDIJ:  cpu time    0.2662: real time    0.2668
     EDDAV:  cpu time    0.2634: real time    0.2640
       DOS:  cpu time    0.0001: real time    0.0001
    CHARGE:  cpu time    0.3000: real time    0.3007
    MIXING:  cpu time    0.0139: real time    0.0140
    --------------------------------------------
      LOOP:  cpu time    1.3507: real time    1.3542

 eigenvalue-minimisations  :    52
 total energy-change (2. order) :-0.4114446E-02  (-0.3079346E-04)
 number of electron       8.0000000 magnetization      -0.0137572
 augmentation part       -0.7860599 magnetization      -0.0138242

 Broyden mixing:
  rms(total) = 0.10762E-02    rms(broyden)= 0.10762E-02
  rms(prec ) = 0.24885E-02
  weight for this iteration     100.00

 eigenvalues of (default mixing * dielectric matrix)
  average eigenvalue GAMMA=   1.5146
  3.9828  2.5500  2.1679  1.4657  1.0625  1.0625  0.8301  0.6139  0.7283  0.6820

 Free energy of the ion-electron system (eV)
  ---------------------------------------------------
  alpha Z        PSCENC =         0.10045428
  Ewald energy   TEWEN  =        37.98610620
  -Hartree energ DENC   =      -282.53243594
  -exchange      EXHF   =         0.00000000
  -V(xc)+E(xc)   XCENC  =        17.53898351
  PAW double counting   =       123.03994293     -120.09927482
  entropy T*S    EENTRO =        -0.00000000
  eigenvalues    EBANDS =       -89.00191899
  atomic energy  EATOM  =       301.77566810
  Solvation  Ediel_sol  =         0.00000000
  ---------------------------------------------------
  free energy    TOTEN  =       -11.19247475 eV

  energy without entropy =      -11.19247475  energy(sigma->0) =      -11.19247475


--------------------------------------------------------------------------------------------------------




--------------------------------------- Iteration      1(  16)  ---------------------------------------


    POTLOK:  cpu time    0.5061: real time    0.5074
    SETDIJ:  cpu time    0.2667: real time    0.2674
     EDDAV:  cpu time    0.2484: real time    0.2490
       DOS:  cpu time    0.0001: real time    0.0001
    CHARGE:  cpu time    0.2990: real time    0.2997
    MIXING:  cpu time    0.0144: real time    0.0145
    --------------------------------------------
      LOOP:  cpu time    1.3347: real time    1.3381

 eigenvalue-minimisations  :    48
 total energy-change (2. order) : 0.6556623E-03  (-0.2961397E-04)
 number of electron       8.0000000 magnetization      -0.0112201
 augmentation part       -0.7860451 magnetization      -0.0112701

 Broyden mixing:
  rms(total) = 0.86450E-03    rms(broyden)= 0.86449E-03
  rms(prec ) = 0.15533E-02
  weight for this iteration     100.00

 eigenvalues of (default mixing * dielectric matrix)
  average eigenvalue GAMMA=   1.5403
  4.3476  2.9225  2.0955  1.6904  1.1264  1.0908  0.8393  0.8393  0.7309  0.6111
  0.6493

 Free energy of the ion-electron system (eV)
  ---------------------------------------------------
  alpha Z        PSCENC =         0.10045428
  Ewald energy   TEWEN  =        37.98610620
  -Hartree energ DENC   =      -282.55132006
  -exchange      EXHF   =         0.00000000
  -V(xc)+E(xc)   XCENC  =        17.53948019
  PAW double counting   =       123.04369750     -120.10309965
  entropy T*S    EENTRO =        -0.00000000
  eigenvalues    EBANDS =       -88.98280564
  atomic energy  EATOM  =       301.77566810
  Solvation  Ediel_sol  =         0.00000000
  ---------------------------------------------------
  free energy    TOTEN  =       -11.19181909 eV

  energy without entropy =      -11.19181909  energy(sigma->0) =      -11.19181909


--------------------------------------------------------------------------------------------------------




--------------------------------------- Iteration      1(  17)  ---------------------------------------


    POTLOK:  cpu time    0.5066: real time    0.5079
    SETDIJ:  cpu time    0.2703: real time    0.2710
     EDDAV:  cpu time    0.2989: real time    0.2996
       DOS:  cpu time    0.0001: real time    0.0001
    CHARGE:  cpu time    0.3017: real time    0.3024
    MIXING:  cpu time    0.0155: real time    0.0155
    --------------------------------------------
      LOOP:  cpu time    1.3929: real time    1.3965

 eigenvalue-minimisations  :    60
 total energy-change (2. order) :-0.8029520E-03  (-0.5929940E-05)
 number of electron       8.0000000 magnetization      -0.0031024
 augmentation part       -0.7860637 magnetization      -0.0031312

 Broyden mixing:
  rms(total) = 0.63222E-03    rms(broyden)= 0.63220E-03
  rms(prec ) = 0.10576E-02
  weight for this iteration     100.00

 eigenvalues of (default mixing * dielectric matrix)
  average eigenvalue GAMMA=   1.5641
  4.5814  3.0964  1.9950  1.9950  1.2518  1.0976  1.0976  0.8407  0.8407  0.7214
  0.6116  0.6402

 Free energy of the ion-electron system (eV)
  ---------------------------------------------------
  alpha Z        PSCENC =         0.10045428
  Ewald energy   TEWEN  =        37.98610620
  -Hartree energ DENC   =      -282.55625216
  -exchange      EXHF   =         0.00000000
  -V(xc)+E(xc)   XCENC  =        17.53844949
  PAW double counting   =       123.02008849     -120.07916778
  entropy T*S    EENTRO =        -0.00000000
  eigenvalues    EBANDS =       -88.97796864
  atomic energy  EATOM  =       301.77566810
  Solvation  Ediel_sol  =         0.00000000
  ---------------------------------------------------
  free energy    TOTEN  =       -11.19262204 eV

  energy without entropy =      -11.19262204  energy(sigma->0) =      -11.19262204


--------------------------------------------------------------------------------------------------------




--------------------------------------- Iteration      1(  18)  ---------------------------------------


    POTLOK:  cpu time    0.5224: real time    0.5238
    SETDIJ:  cpu time    0.2685: real time    0.2692
     EDDAV:  cpu time    0.2509: real time    0.2515
       DOS:  cpu time    0.0001: real time    0.0001
    CHARGE:  cpu time    0.2991: real time    0.2999
    MIXING:  cpu time    0.0154: real time    0.0154
    --------------------------------------------
      LOOP:  cpu time    1.3564: real time    1.3599

 eigenvalue-minimisations  :    48
 total energy-change (2. order) :-0.2946844E-02  (-0.7212330E-05)
 number of electron       8.0000000 magnetization      -0.0000839
 augmentation part       -0.7861002 magnetization      -0.0000882

 Broyden mixing:
  rms(total) = 0.31853E-03    rms(broyden)= 0.31850E-03
  rms(prec ) = 0.52302E-03
  weight for this iteration     100.00

 eigenvalues of (default mixing * dielectric matrix)
  average eigenvalue GAMMA=   1.7390
  5.8750  3.6822  2.3430  2.3430  1.6567  1.2082  1.0178  0.9255  0.8466  0.7336
  0.7336  0.6100  0.6323

 Free energy of the ion-electron system (eV)
  ---------------------------------------------------
  alpha Z        PSCENC =         0.10045428
  Ewald energy   TEWEN  =        37.98610620
  -Hartree energ DENC   =      -282.56526338
  -exchange      EXHF   =         0.00000000
  -V(xc)+E(xc)   XCENC  =        17.53581385
  PAW double counting   =       122.99188374     -120.05054169
  entropy T*S    EENTRO =        -0.00000000
  eigenvalues    EBANDS =       -88.96968997
  atomic energy  EATOM  =       301.77566810
  Solvation  Ediel_sol  =         0.00000000
  ---------------------------------------------------
  free energy    TOTEN  =       -11.19556888 eV

  energy without entropy =      -11.19556888  energy(sigma->0) =      -11.19556888


--------------------------------------------------------------------------------------------------------




--------------------------------------- Iteration      1(  19)  ---------------------------------------


    POTLOK:  cpu time    0.5037: real time    0.5051
    SETDIJ:  cpu time    0.2660: real time    0.2667
     EDDAV:  cpu time    0.2768: real time    0.2775
       DOS:  cpu time    0.0001: real time    0.0001
    CHARGE:  cpu time    0.2990: real time    0.2998
    MIXING:  cpu time    0.0159: real time    0.0160
    --------------------------------------------
      LOOP:  cpu time    1.3616: real time    1.3651

 eigenvalue-minimisations  :    56
 total energy-change (2. order) :-0.4037947E-03  (-0.9655693E-06)
 number of electron       8.0000000 magnetization       0.0009473
 augmentation part       -0.7860957 magnetization       0.0009472

 Broyden mixing:
  rms(total) = 0.15841E-03    rms(broyden)= 0.15836E-03
  rms(prec ) = 0.33025E-03
  weight for this iteration     100.00

 eigenvalues of (default mixing * dielectric matrix)
  average eigenvalue GAMMA=   1.8062
  6.9627  3.9406  2.4233  2.3789  1.7450  1.2377  1.1059  1.1059  0.8526  0.8526
  0.7212  0.7212  0.6115  0.6270

 Free energy of the ion-electron system (eV)
  ---------------------------------------------------
  alpha Z        PSCENC =         0.10045428
  Ewald energy   TEWEN  =        37.98610620
  -Hartree energ DENC   =      -282.56987605
  -exchange      EXHF   =         0.00000000
  -V(xc)+E(xc)   XCENC  =        17.53546068
  PAW double counting   =       122.99046481     -120.04910586
  entropy T*S    EENTRO =        -0.00000000
  eigenvalues    EBANDS =       -88.96514484
  atomic energy  EATOM  =       301.77566810
  Solvation  Ediel_sol  =         0.00000000
  ---------------------------------------------------
  free energy    TOTEN  =       -11.19597268 eV

  energy without entropy =      -11.19597268  energy(sigma->0) =      -11.19597268


--------------------------------------------------------------------------------------------------------




--------------------------------------- Iteration      1(  20)  ---------------------------------------


    POTLOK:  cpu time    0.5035: real time    0.5049
    SETDIJ:  cpu time    0.2659: real time    0.2666
     EDDAV:  cpu time    0.2622: real time    0.2628
       DOS:  cpu time    0.0001: real time    0.0001
    CHARGE:  cpu time    0.2997: real time    0.3004
    MIXING:  cpu time    0.0170: real time    0.0171
    --------------------------------------------
      LOOP:  cpu time    1.3485: real time    1.3520

 eigenvalue-minimisations  :    52
 total energy-change (2. order) :-0.4753326E-04  (-0.2345084E-06)
 number of electron       8.0000000 magnetization       0.0009063
 augmentation part       -0.7860818 magnetization       0.0009086

 Broyden mixing:
  rms(total) = 0.10952E-03    rms(broyden)= 0.10945E-03
  rms(prec ) = 0.22398E-03
  weight for this iteration     100.00

 eigenvalues of (default mixing * dielectric matrix)
  average eigenvalue GAMMA=   1.8286
  7.7419  4.0214  2.7295  2.1634  1.8064  1.4725  1.1966  0.9719  0.9719  0.8436
  0.8436  0.7151  0.7151  0.6125  0.6240

 Free energy of the ion-electron system (eV)
  ---------------------------------------------------
  alpha Z        PSCENC =         0.10045428
  Ewald energy   TEWEN  =        37.98610620
  -Hartree energ DENC   =      -282.57222560
  -exchange      EXHF   =         0.00000000
  -V(xc)+E(xc)   XCENC  =        17.53536046
  PAW double counting   =       122.99570610     -120.05443630
  entropy T*S    EENTRO =        -0.00000000
  eigenvalues    EBANDS =       -88.96265344
  atomic energy  EATOM  =       301.77566810
  Solvation  Ediel_sol  =         0.00000000
  ---------------------------------------------------
  free energy    TOTEN  =       -11.19602021 eV

  energy without entropy =      -11.19602021  energy(sigma->0) =      -11.19602021


--------------------------------------------------------------------------------------------------------




--------------------------------------- Iteration      1(  21)  ---------------------------------------


    POTLOK:  cpu time    0.5044: real time    0.5058
    SETDIJ:  cpu time    0.2664: real time    0.2671
     EDDAV:  cpu time    0.3337: real time    0.3345
       DOS:  cpu time    0.0001: real time    0.0001
    CHARGE:  cpu time    0.3003: real time    0.3010
    MIXING:  cpu time    0.0169: real time    0.0169
    --------------------------------------------
      LOOP:  cpu time    1.4218: real time    1.4254

 eigenvalue-minimisations  :    60
 total energy-change (2. order) : 0.2883455E-05  (-0.1813681E-06)
 number of electron       8.0000000 magnetization       0.0006008
 augmentation part       -0.7860826 magnetization       0.0006031

 Broyden mixing:
  rms(total) = 0.72101E-04    rms(broyden)= 0.71996E-04
  rms(prec ) = 0.15115E-03
  weight for this iteration     100.00

 eigenvalues of (default mixing * dielectric matrix)
  average eigenvalue GAMMA=   1.8493
  8.1915  4.0740  2.9585  2.1211  2.1211  1.6546  1.1181  1.1181  1.0565  0.8826
  0.8826  0.7597  0.7350  0.6803  0.6111  0.6241

 Free energy of the ion-electron system (eV)
  ---------------------------------------------------
  alpha Z        PSCENC =         0.10045428
  Ewald energy   TEWEN  =        37.98610620
  -Hartree energ DENC   =      -282.57219740
  -exchange      EXHF   =         0.00000000
  -V(xc)+E(xc)   XCENC  =        17.53534152
  PAW double counting   =       122.99482187     -120.05353805
  entropy T*S    EENTRO =        -0.00000000
  eigenvalues    EBANDS =       -88.96267385
  atomic energy  EATOM  =       301.77566810
  Solvation  Ediel_sol  =         0.00000000
  ---------------------------------------------------
  free energy    TOTEN  =       -11.19601733 eV

  energy without entropy =      -11.19601733  energy(sigma->0) =      -11.19601733


--------------------------------------------------------------------------------------------------------




--------------------------------------- Iteration      1(  22)  ---------------------------------------


    POTLOK:  cpu time    0.5047: real time    0.5061
    SETDIJ:  cpu time    0.2660: real time    0.2666
     EDDAV:  cpu time    0.2631: real time    0.2637
       DOS:  cpu time    0.0001: real time    0.0001
    CHARGE:  cpu time    0.3001: real time    0.3008
    MIXING:  cpu time    0.0177: real time    0.0178
    --------------------------------------------
      LOOP:  cpu time    1.3517: real time    1.3552

 eigenvalue-minimisations  :    52
 total energy-change (2. order) :-0.4872458E-04  (-0.8018478E-07)
 number of electron       8.0000000 magnetization       0.0003400
 augmentation part       -0.7860852 magnetization       0.0003409

 Broyden mixing:
  rms(total) = 0.52407E-04    rms(broyden)= 0.52265E-04
  rms(prec ) = 0.93812E-04
  weight for this iteration     100.00

 eigenvalues of (default mixing * dielectric matrix)
  average eigenvalue GAMMA=   1.8655
  8.2720  4.2147  3.1909  2.4735  2.2640  1.6587  1.2771  1.2771  1.0226  1.0226
  0.8519  0.8519  0.7262  0.7262  0.6499  0.6107  0.6238

 Free energy of the ion-electron system (eV)
  ---------------------------------------------------
  alpha Z        PSCENC =         0.10045428
  Ewald energy   TEWEN  =        37.98610620
  -Hartree energ DENC   =      -282.57178868
  -exchange      EXHF   =         0.00000000
  -V(xc)+E(xc)   XCENC  =        17.53527628
  PAW double counting   =       122.99477878     -120.05348760
  entropy T*S    EENTRO =        -0.00000000
  eigenvalues    EBANDS =       -88.96307341
  atomic energy  EATOM  =       301.77566810
  Solvation  Ediel_sol  =         0.00000000
  ---------------------------------------------------
  free energy    TOTEN  =       -11.19606605 eV

  energy without entropy =      -11.19606605  energy(sigma->0) =      -11.19606605


--------------------------------------------------------------------------------------------------------




--------------------------------------- Iteration      1(  23)  ---------------------------------------


    POTLOK:  cpu time    0.5130: real time    0.5159
    SETDIJ:  cpu time    0.2676: real time    0.2682
     EDDAV:  cpu time    0.2495: real time    0.2501
       DOS:  cpu time    0.0001: real time    0.0001
    CHARGE:  cpu time    0.3026: real time    0.3033
    MIXING:  cpu time    0.0195: real time    0.0196
    --------------------------------------------
      LOOP:  cpu time    1.3523: real time    1.3572

 eigenvalue-minimisations  :    48
 total energy-change (2. order) :-0.5212046E-04  (-0.5717216E-07)
 number of electron       8.0000000 magnetization       0.0000380
 augmentation part       -0.7860858 magnetization       0.0000389

 Broyden mixing:
  rms(total) = 0.34192E-04    rms(broyden)= 0.33975E-04
  rms(prec ) = 0.57109E-04
  weight for this iteration     100.00

 eigenvalues of (default mixing * dielectric matrix)
  average eigenvalue GAMMA=   1.8950
  8.4107  4.4915  3.6426  2.7633  1.9509  1.9509  1.6443  1.1568  1.1568  0.9700
  0.9700  0.8459  0.8459  0.7234  0.7192  0.6126  0.6196  0.6362

 Free energy of the ion-electron system (eV)
  ---------------------------------------------------
  alpha Z        PSCENC =         0.10045428
  Ewald energy   TEWEN  =        37.98610620
  -Hartree energ DENC   =      -282.57127621
  -exchange      EXHF   =         0.00000000
  -V(xc)+E(xc)   XCENC  =        17.53518786
  PAW double counting   =       122.99523968     -120.05395264
  entropy T*S    EENTRO =        -0.00000000
  eigenvalues    EBANDS =       -88.96354543
  atomic energy  EATOM  =       301.77566810
  Solvation  Ediel_sol  =         0.00000000
  ---------------------------------------------------
  free energy    TOTEN  =       -11.19611817 eV

  energy without entropy =      -11.19611817  energy(sigma->0) =      -11.19611817


--------------------------------------------------------------------------------------------------------




--------------------------------------- Iteration      1(  24)  ---------------------------------------


    POTLOK:  cpu time    0.5073: real time    0.5087
    SETDIJ:  cpu time    0.2669: real time    0.2675
     EDDAV:  cpu time    0.2486: real time    0.2492
       DOS:  cpu time    0.0001: real time    0.0001
    CHARGE:  cpu time    0.3019: real time    0.3026
    MIXING:  cpu time    0.0197: real time    0.0198
    --------------------------------------------
      LOOP:  cpu time    1.3445: real time    1.3479

 eigenvalue-minimisations  :    48
 total energy-change (2. order) :-0.1792899E-04  (-0.3608398E-07)
 number of electron       8.0000000 magnetization      -0.0000699
 augmentation part       -0.7860866 magnetization      -0.0000692

 Broyden mixing:
  rms(total) = 0.19387E-04    rms(broyden)= 0.19002E-04
  rms(prec ) = 0.31493E-04
  weight for this iteration     100.00

 eigenvalues of (default mixing * dielectric matrix)
  average eigenvalue GAMMA=   1.9613
  8.7798  5.3321  3.9959  2.8075  2.2179  2.2179  1.6213  1.2324  1.2324  1.0431
  1.0431  0.8542  0.8542  0.7452  0.7452  0.6895  0.6292  0.6119  0.6119

 Free energy of the ion-electron system (eV)
  ---------------------------------------------------
  alpha Z        PSCENC =         0.10045428
  Ewald energy   TEWEN  =        37.98610620
  -Hartree energ DENC   =      -282.57076173
  -exchange      EXHF   =         0.00000000
  -V(xc)+E(xc)   XCENC  =        17.53515012
  PAW double counting   =       122.99513678     -120.05384770
  entropy T*S    EENTRO =        -0.00000000
  eigenvalues    EBANDS =       -88.96404214
  atomic energy  EATOM  =       301.77566810
  Solvation  Ediel_sol  =         0.00000000
  ---------------------------------------------------
  free energy    TOTEN  =       -11.19613610 eV

  energy without entropy =      -11.19613610  energy(sigma->0) =      -11.19613610


--------------------------------------------------------------------------------------------------------




--------------------------------------- Iteration      1(  25)  ---------------------------------------


    POTLOK:  cpu time    0.5075: real time    0.5089
    SETDIJ:  cpu time    0.2668: real time    0.2674
     EDDAV:  cpu time    0.3235: real time    0.3243
       DOS:  cpu time    0.0001: real time    0.0001
    CHARGE:  cpu time    0.3032: real time    0.3039
    MIXING:  cpu time    0.0202: real time    0.0202
    --------------------------------------------
      LOOP:  cpu time    1.4211: real time    1.4247

 eigenvalue-minimisations  :    68
 total energy-change (2. order) :-0.1275842E-05  (-0.8454714E-08)
 number of electron       8.0000000 magnetization      -0.0000639
 augmentation part       -0.7860865 magnetization      -0.0000637

 Broyden mixing:
  rms(total) = 0.11412E-04    rms(broyden)= 0.10746E-04
  rms(prec ) = 0.18565E-04
  weight for this iteration     100.00

 eigenvalues of (default mixing * dielectric matrix)
  average eigenvalue GAMMA=   2.0210
  9.2000  6.3158  4.0747  2.9187  2.5575  2.1183  1.6135  1.6135  1.1847  1.1847
  0.9693  0.9693  0.8537  0.8537  0.7328  0.7328  0.6804  0.6257  0.6139  0.6070

 Free energy of the ion-electron system (eV)
  ---------------------------------------------------
  alpha Z        PSCENC =         0.10045428
  Ewald energy   TEWEN  =        37.98610620
  -Hartree energ DENC   =      -282.57071683
  -exchange      EXHF   =         0.00000000
  -V(xc)+E(xc)   XCENC  =        17.53516096
  PAW double counting   =       122.99530382     -120.05401729
  entropy T*S    EENTRO =        -0.00000000
  eigenvalues    EBANDS =       -88.96409661
  atomic energy  EATOM  =       301.77566810
  Solvation  Ediel_sol  =         0.00000000
  ---------------------------------------------------
  free energy    TOTEN  =       -11.19613738 eV

  energy without entropy =      -11.19613738  energy(sigma->0) =      -11.19613738


--------------------------------------------------------------------------------------------------------




--------------------------------------- Iteration      1(  26)  ---------------------------------------


    POTLOK:  cpu time    0.5086: real time    0.5100
    SETDIJ:  cpu time    0.2670: real time    0.2677
     EDDAV:  cpu time    0.2792: real time    0.2799
       DOS:  cpu time    0.0001: real time    0.0001
    CHARGE:  cpu time    0.2999: real time    0.3007
    MIXING:  cpu time    0.0209: real time    0.0210
    --------------------------------------------
      LOOP:  cpu time    1.3758: real time    1.3793

 eigenvalue-minimisations  :    56
 total energy-change (2. order) :-0.3401371E-05  (-0.3075387E-08)
 number of electron       8.0000000 magnetization      -0.0000331
 augmentation part       -0.7860855 magnetization      -0.0000331

 Broyden mixing:
  rms(total) = 0.79713E-05    rms(broyden)= 0.69858E-05
  rms(prec ) = 0.11292E-04
  weight for this iteration     100.00
  WARNING: grid for Broyden might be to small

 eigenvalues of (default mixing * dielectric matrix)
  average eigenvalue GAMMA=   2.0089
  9.3933  6.6335  4.0916  3.0407  2.6064  1.9700  1.9700  1.5411  1.1960  1.1960
  1.0160  1.0160  0.8783  0.8783  0.7857  0.7491  0.7084  0.6716  0.6241  0.6160
  0.6052

 Free energy of the ion-electron system (eV)
  ---------------------------------------------------
  alpha Z        PSCENC =         0.10045428
  Ewald energy   TEWEN  =        37.98610620
  -Hartree energ DENC   =      -282.57083157
  -exchange      EXHF   =         0.00000000
  -V(xc)+E(xc)   XCENC  =        17.53517586
  PAW double counting   =       122.99565475     -120.05437342
  entropy T*S    EENTRO =        -0.00000000
  eigenvalues    EBANDS =       -88.96399497
  atomic energy  EATOM  =       301.77566810
  Solvation  Ediel_sol  =         0.00000000
  ---------------------------------------------------
  free energy    TOTEN  =       -11.19614078 eV

  energy without entropy =      -11.19614078  energy(sigma->0) =      -11.19614078


--------------------------------------------------------------------------------------------------------




--------------------------------------- Iteration      1(  27)  ---------------------------------------


    POTLOK:  cpu time    0.5070: real time    0.5083
    SETDIJ:  cpu time    0.2669: real time    0.2675
     EDDAV:  cpu time    0.2924: real time    0.2931
       DOS:  cpu time    0.0001: real time    0.0001
    CHARGE:  cpu time    0.3003: real time    0.3011
    MIXING:  cpu time    0.0216: real time    0.0216
    --------------------------------------------
      LOOP:  cpu time    1.3883: real time    1.3918

 eigenvalue-minimisations  :    60
 total energy-change (2. order) :-0.1529758E-05  (-0.1570633E-08)
 number of electron       8.0000000 magnetization      -0.0000118
 augmentation part       -0.7860852 magnetization      -0.0000120

 Broyden mixing:
  rms(total) = 0.62212E-05    rms(broyden)= 0.48956E-05
  rms(prec ) = 0.73659E-05
  weight for this iteration     100.00
  WARNING: grid for Broyden might be to small

 eigenvalues of (default mixing * dielectric matrix)
  average eigenvalue GAMMA=   2.0457
  9.5622  6.8944  4.1142  3.3442  2.5098  2.5098  2.1362  1.5783  1.5783  1.1971
  1.1971  0.9656  0.9656  0.8647  0.8647  0.7665  0.7490  0.7055  0.6591  0.6255
  0.6123  0.6056

 Free energy of the ion-electron system (eV)
  ---------------------------------------------------
  alpha Z        PSCENC =         0.10045428
  Ewald energy   TEWEN  =        37.98610620
  -Hartree energ DENC   =      -282.57076620
  -exchange      EXHF   =         0.00000000
  -V(xc)+E(xc)   XCENC  =        17.53517077
  PAW double counting   =       122.99565004     -120.05436937
  entropy T*S    EENTRO =        -0.00000000
  eigenvalues    EBANDS =       -88.96405613
  atomic energy  EATOM  =       301.77566810
  Solvation  Ediel_sol  =         0.00000000
  ---------------------------------------------------
  free energy    TOTEN  =       -11.19614231 eV

  energy without entropy =      -11.19614231  energy(sigma->0) =      -11.19614231


--------------------------------------------------------------------------------------------------------




--------------------------------------- Iteration      1(  28)  ---------------------------------------


    POTLOK:  cpu time    0.5075: real time    0.5089
    SETDIJ:  cpu time    0.2666: real time    0.2672
     EDDAV:  cpu time    0.2624: real time    0.2630
       DOS:  cpu time    0.0001: real time    0.0001
    CHARGE:  cpu time    0.3000: real time    0.3007
    MIXING:  cpu time    0.0224: real time    0.0224
    --------------------------------------------
      LOOP:  cpu time    1.3588: real time    1.3623

 eigenvalue-minimisations  :    52
 total energy-change (2. order) :-0.1161656E-05  (-0.1168626E-08)
 number of electron       8.0000000 magnetization      -0.0000079
 augmentation part       -0.7860857 magnetization      -0.0000080

 Broyden mixing:
  rms(total) = 0.44974E-05    rms(broyden)= 0.23430E-05
  rms(prec ) = 0.34463E-05
  weight for this iteration     100.00
  WARNING: grid for Broyden might be to small

 eigenvalues of (default mixing * dielectric matrix)
  average eigenvalue GAMMA=   2.0710
  9.7209  7.2604  4.3798  3.9401  2.8198  2.5471  2.0885  1.7738  1.4852  1.1922
  1.1922  0.9789  0.9789  0.8991  0.8991  0.7987  0.7741  0.7143  0.7006  0.6483
  0.6254  0.6113  0.6036

 Free energy of the ion-electron system (eV)
  ---------------------------------------------------
  alpha Z        PSCENC =         0.10045428
  Ewald energy   TEWEN  =        37.98610620
  -Hartree energ DENC   =      -282.57059536
  -exchange      EXHF   =         0.00000000
  -V(xc)+E(xc)   XCENC  =        17.53515820
  PAW double counting   =       122.99540755     -120.05412424
  entropy T*S    EENTRO =        -0.00000000
  eigenvalues    EBANDS =       -88.96421819
  atomic energy  EATOM  =       301.77566810
  Solvation  Ediel_sol  =         0.00000000
  ---------------------------------------------------
  free energy    TOTEN  =       -11.19614347 eV

  energy without entropy =      -11.19614347  energy(sigma->0) =      -11.19614347


--------------------------------------------------------------------------------------------------------




--------------------------------------- Iteration      1(  29)  ---------------------------------------


    POTLOK:  cpu time    0.5184: real time    0.5198
    SETDIJ:  cpu time    0.2673: real time    0.2679
     EDDAV:  cpu time    0.2937: real time    0.2945
       DOS:  cpu time    0.0001: real time    0.0001
    CHARGE:  cpu time    0.3004: real time    0.3011
    MIXING:  cpu time    0.0236: real time    0.0237
    --------------------------------------------
      LOOP:  cpu time    1.4034: real time    1.4071

 eigenvalue-minimisations  :    60
 total energy-change (2. order) :-0.1204341E-06  (-0.1468354E-09)
 number of electron       8.0000000 magnetization      -0.0000024
 augmentation part       -0.7860859 magnetization      -0.0000025

 Broyden mixing:
  rms(total) = 0.40484E-05    rms(broyden)= 0.12859E-05
  rms(prec ) = 0.21763E-05
  weight for this iteration     100.00
  WARNING: grid for Broyden might be to small

 eigenvalues of (default mixing * dielectric matrix)
  average eigenvalue GAMMA=   2.0525
  9.7692  7.4147  4.6091  3.9873  2.8699  2.5318  2.1028  1.8004  1.4023  1.2544
  1.2544  1.0865  0.9656  0.9656  0.9448  0.8335  0.8335  0.7583  0.7184  0.6830
  0.6361  0.6239  0.6124  0.6024

 Free energy of the ion-electron system (eV)
  ---------------------------------------------------
  alpha Z        PSCENC =         0.10045428
  Ewald energy   TEWEN  =        37.98610620
  -Hartree energ DENC   =      -282.57056064
  -exchange      EXHF   =         0.00000000
  -V(xc)+E(xc)   XCENC  =        17.53515661
  PAW double counting   =       122.99537850     -120.05409460
  entropy T*S    EENTRO =        -0.00000000
  eigenvalues    EBANDS =       -88.96425204
  atomic energy  EATOM  =       301.77566810
  Solvation  Ediel_sol  =         0.00000000
  ---------------------------------------------------
  free energy    TOTEN  =       -11.19614359 eV

  energy without entropy =      -11.19614359  energy(sigma->0) =      -11.19614359


--------------------------------------------------------------------------------------------------------




--------------------------------------- Iteration      1(  30)  ---------------------------------------


    POTLOK:  cpu time    0.5084: real time    0.5098
    SETDIJ:  cpu time    0.2674: real time    0.2680
     EDDAV:  cpu time    0.2778: real time    0.2784
       DOS:  cpu time    0.0001: real time    0.0001
    CHARGE:  cpu time    0.3001: real time    0.3009
    MIXING:  cpu time    0.0248: real time    0.0249
    --------------------------------------------
      LOOP:  cpu time    1.3786: real time    1.3821

 eigenvalue-minimisations  :    56
 total energy-change (2. order) :-0.1183931E-06  (-0.9351986E-10)
 number of electron       8.0000000 magnetization       0.0000021
 augmentation part       -0.7860859 magnetization       0.0000021

 Broyden mixing:
  rms(total) = 0.39134E-05    rms(broyden)= 0.76097E-06
  rms(prec ) = 0.14046E-05
  weight for this iteration     100.00
  WARNING: grid for Broyden might be to small

 eigenvalues of (default mixing * dielectric matrix)
  average eigenvalue GAMMA=   2.0770
  9.8274  7.6067  4.9658  4.0376  2.9589  2.6435  2.1331  1.9410  1.9008  1.4496
  1.1989  1.1989  0.9984  0.9984  0.9229  0.9229  0.8146  0.8146  0.7271  0.7271
  0.6735  0.6282  0.6189  0.6135  0.6016

 Free energy of the ion-electron system (eV)
  ---------------------------------------------------
  alpha Z        PSCENC =         0.10045428
  Ewald energy   TEWEN  =        37.98610620
  -Hartree energ DENC   =      -282.57055888
  -exchange      EXHF   =         0.00000000
  -V(xc)+E(xc)   XCENC  =        17.53515618
  PAW double counting   =       122.99544187     -120.05415842
  entropy T*S    EENTRO =        -0.00000000
  eigenvalues    EBANDS =       -88.96425302
  atomic energy  EATOM  =       301.77566810
  Solvation  Ediel_sol  =         0.00000000
  ---------------------------------------------------
  free energy    TOTEN  =       -11.19614371 eV

  energy without entropy =      -11.19614371  energy(sigma->0) =      -11.19614371


--------------------------------------------------------------------------------------------------------




--------------------------------------- Iteration      1(  31)  ---------------------------------------


    POTLOK:  cpu time    0.5069: real time    0.5083
    SETDIJ:  cpu time    0.2663: real time    0.2669
     EDDAV:  cpu time    0.2774: real time    0.2781
       DOS:  cpu time    0.0001: real time    0.0001
    CHARGE:  cpu time    0.2989: real time    0.2996
    MIXING:  cpu time    0.0283: real time    0.0284
    --------------------------------------------
      LOOP:  cpu time    1.3780: real time    1.3815

 eigenvalue-minimisations  :    56
 total energy-change (2. order) :-0.4464158E-07  (-0.1593659E-10)
 number of electron       8.0000000 magnetization       0.0000021
[...]

 eigenvalue-minimisations  :    48
 total energy-change (2. order) : 0.3340676E-07  (-0.7856666E-08)
 number of electron       8.0000000 magnetization       0.0000000
 augmentation part       -0.7860725 magnetization       0.0000000

 Broyden mixing:
  rms(total) = 0.19137E-04    rms(broyden)= 0.18737E-04
  rms(prec ) = 0.21895E-04
  weight for this iteration     100.00

 eigenvalues of (default mixing * dielectric matrix)
  average eigenvalue GAMMA=   1.4160
  2.4654  1.2426  1.2426  0.7132

 Free energy of the ion-electron system (eV)
  ---------------------------------------------------
  alpha Z        PSCENC =         0.10045428
  Ewald energy   TEWEN  =        38.03310101
  -Hartree energ DENC   =      -282.60842879
  -exchange      EXHF   =         0.00000000
  -V(xc)+E(xc)   XCENC  =        17.53725831
  PAW double counting   =       123.03563121     -120.09478229
  entropy T*S    EENTRO =        -0.00000000
  eigenvalues    EBANDS =       -88.97503399
  atomic energy  EATOM  =       301.77566810
  Solvation  Ediel_sol  =         0.00000000
  ---------------------------------------------------
  free energy    TOTEN  =       -11.19613216 eV

  energy without entropy =      -11.19613216  energy(sigma->0) =      -11.19613216


--------------------------------------------------------------------------------------------------------




--------------------------------------- Iteration     10(   6)  ---------------------------------------


    POTLOK:  cpu time    0.5249: real time    0.5269
    SETDIJ:  cpu time    0.2690: real time    0.2702
     EDDAV:  cpu time    0.3777: real time    0.3802
       DOS:  cpu time    0.0001: real time    0.0001
    CHARGE:  cpu time    0.3026: real time    0.3040
    MIXING:  cpu time    0.0123: real time    0.0124
    --------------------------------------------
      LOOP:  cpu time    1.4865: real time    1.4937

 eigenvalue-minimisations  :    80
 total energy-change (2. order) :-0.4613349E-07  (-0.2910251E-08)
 number of electron       8.0000000 magnetization       0.0000000
 augmentation part       -0.7860729 magnetization      -0.0000000

 Broyden mixing:
  rms(total) = 0.11874E-04    rms(broyden)= 0.11223E-04
  rms(prec ) = 0.14102E-04
  weight for this iteration     100.00

 eigenvalues of (default mixing * dielectric matrix)
  average eigenvalue GAMMA=   1.3720
  2.4132  1.3932  1.3932  1.0387  0.6218

 Free energy of the ion-electron system (eV)
  ---------------------------------------------------
  alpha Z        PSCENC =         0.10045428
  Ewald energy   TEWEN  =        38.03310101
  -Hartree energ DENC   =      -282.60843797
  -exchange      EXHF   =         0.00000000
  -V(xc)+E(xc)   XCENC  =        17.53725960
  PAW double counting   =       123.03572935     -120.09488126
  entropy T*S    EENTRO =        -0.00000000
  eigenvalues    EBANDS =       -88.97502532
  atomic energy  EATOM  =       301.77566810
  Solvation  Ediel_sol  =         0.00000000
  ---------------------------------------------------
  free energy    TOTEN  =       -11.19613221 eV

  energy without entropy =      -11.19613221  energy(sigma->0) =      -11.19613221


--------------------------------------------------------------------------------------------------------




--------------------------------------- Iteration     10(   7)  ---------------------------------------


    POTLOK:  cpu time    0.5281: real time    0.5326
    SETDIJ:  cpu time    0.2678: real time    0.2694
     EDDAV:  cpu time    0.3134: real time    0.3155
       DOS:  cpu time    0.0001: real time    0.0001
    CHARGE:  cpu time    0.3028: real time    0.3041
    MIXING:  cpu time    0.0127: real time    0.0127
    --------------------------------------------
      LOOP:  cpu time    1.4249: real time    1.4344

 eigenvalue-minimisations  :    64
 total energy-change (2. order) :-0.2174590E-07  (-0.5205134E-09)
 number of electron       8.0000000 magnetization      -0.0000000
 augmentation part       -0.7860729 magnetization       0.0000000

 Broyden mixing:
  rms(total) = 0.68293E-05    rms(broyden)= 0.56359E-05
  rms(prec ) = 0.85440E-05
  weight for this iteration     100.00
  WARNING: grid for Broyden might be to small

 eigenvalues of (default mixing * dielectric matrix)
  average eigenvalue GAMMA=   1.5122
  2.6269  2.3229  1.2639  1.2639  0.9853  0.6101

 Free energy of the ion-electron system (eV)
  ---------------------------------------------------
  alpha Z        PSCENC =         0.10045428
  Ewald energy   TEWEN  =        38.03310101
  -Hartree energ DENC   =      -282.60841405
  -exchange      EXHF   =         0.00000000
  -V(xc)+E(xc)   XCENC  =        17.53725776
  PAW double counting   =       123.03565555     -120.09480640
  entropy T*S    EENTRO =        -0.00000000
  eigenvalues    EBANDS =       -88.97504847
  atomic energy  EATOM  =       301.77566810
  Solvation  Ediel_sol  =         0.00000000
  ---------------------------------------------------
  free energy    TOTEN  =       -11.19613223 eV

  energy without entropy =      -11.19613223  energy(sigma->0) =      -11.19613223


--------------------------------------------------------------------------------------------------------




--------------------------------------- Iteration     10(   8)  ---------------------------------------


    POTLOK:  cpu time    0.5249: real time    0.5289
    SETDIJ:  cpu time    0.2684: real time    0.2712
     EDDAV:  cpu time    0.3140: real time    0.3173
       DOS:  cpu time    0.0001: real time    0.0001
    --------------------------------------------
      LOOP:  cpu time    1.1075: real time    1.1175

 eigenvalue-minimisations  :    64
 total energy-change (2. order) :-0.8045731E-08  (-0.8738521E-10)
 number of electron       8.0000000 magnetization      -0.0000000
 augmentation part       -0.7860729 magnetization       0.0000000

 Free energy of the ion-electron system (eV)
  ---------------------------------------------------
  alpha Z        PSCENC =         0.10045428
  Ewald energy   TEWEN  =        38.03310101
  -Hartree energ DENC   =      -282.60837170
  -exchange      EXHF   =         0.00000000
  -V(xc)+E(xc)   XCENC  =        17.53725572
  PAW double counting   =       123.03555818     -120.09470726
  entropy T*S    EENTRO =        -0.00000000
  eigenvalues    EBANDS =       -88.97509056
  atomic energy  EATOM  =       301.77566810
  Solvation  Ediel_sol  =         0.00000000
  ---------------------------------------------------
  free energy    TOTEN  =       -11.19613224 eV

  energy without entropy =      -11.19613224  energy(sigma->0) =      -11.19613224


--------------------------------------------------------------------------------------------------------




 average (electrostatic) potential at core
  the test charge radii are     0.9698  0.5201
  (the norm of the test charge is              1.0000)
       1 -96.2465       2 -43.1632       3 -43.1699
 
 
 
 E-fermi :  -5.9518     XC(G=0):  -0.3567     alpha+bet : -0.1087


 spin component 1

 k-point     1 :       0.0000    0.0000    0.0000
  band No.  band energies     occupation 
      1     -18.4335      1.00000
      2     -10.8484      1.00000
      3      -9.0124      1.00000
      4      -6.1933      1.00000
      5      -0.8204      0.00000
      6      -0.5767      0.00000
      7       0.2433      0.00000
      8       0.4833      0.00000
      9       0.6536      0.00000
     10       0.7468      0.00000
     11       0.7712      0.00000
     12       0.9644      0.00000

 spin component 2

 k-point     1 :       0.0000    0.0000    0.0000
  band No.  band energies     occupation 
      1     -18.4335      1.00000
      2     -10.8484      1.00000
      3      -9.0124      1.00000
      4      -6.1933      1.00000
      5      -0.8204      0.00000
      6      -0.5767      0.00000
      7       0.2433      0.00000
      8       0.4833      0.00000
      9       0.6536      0.00000
     10       0.7468      0.00000
     11       0.7712      0.00000
     12       0.9644      0.00000


--------------------------------------------------------------------------------------------------------


 soft charge-density along one line, spin component           1
         0         1         2         3         4         5         6         7         8         9
 total charge-density along one line
 
 soft charge-density along one line, spin component           2
         0         1         2         3         4         5         6         7         8         9
 total charge-density along one line
 
 pseudopotential strength for first ion, spin component:           1
 42.649   0.015   0.023  -0.049   0.023   0.000  -0.000   0.000
  0.015   0.009  -0.000   0.000  -0.000   0.000  -0.000   0.000
  0.023  -0.000   8.756  -0.003   0.012  -0.005   0.000  -0.001
 -0.049   0.000  -0.003   8.776   0.006   0.000  -0.006  -0.000
  0.023  -0.000   0.012   0.006   8.775  -0.001  -0.000  -0.006
  0.000   0.000  -0.005   0.000  -0.001   0.027  -0.000   0.000
 -0.000  -0.000   0.000  -0.006  -0.000  -0.000   0.027   0.000
  0.000   0.000  -0.001  -0.000  -0.006   0.000   0.000   0.027
 pseudopotential strength for first ion, spin component:           2
 42.649   0.015   0.023  -0.049   0.023   0.000  -0.000   0.000
  0.015   0.009  -0.000   0.000  -0.000   0.000  -0.000   0.000
  0.023  -0.000   8.756  -0.003   0.012  -0.005   0.000  -0.001
 -0.049   0.000  -0.003   8.776   0.006   0.000  -0.006  -0.000
  0.023  -0.000   0.012   0.006   8.775  -0.001  -0.000  -0.006
  0.000   0.000  -0.005   0.000  -0.001   0.027  -0.000   0.000
 -0.000  -0.000   0.000  -0.006  -0.000  -0.000   0.027   0.000
  0.000   0.000  -0.001  -0.000  -0.006   0.000   0.000   0.027
 total augmentation occupancy for first ion, spin component:           1
  1.850  -0.671  -0.108   0.234  -0.111  -0.078   0.170  -0.080
 -0.671   2.255  -0.601   1.299  -0.616   0.387  -0.837   0.396
 -0.108  -0.601   1.737   0.045  -0.222  -0.332   0.083  -0.221
  0.234   1.299   0.045   1.372  -0.130   0.083  -0.735  -0.075
 -0.111  -0.616  -0.222  -0.130   1.354  -0.221  -0.075  -0.680
 -0.078   0.387  -0.332   0.083  -0.221   0.129  -0.061   0.186
  0.170  -0.837   0.083  -0.735  -0.075  -0.061   0.460   0.076
 -0.080   0.396  -0.221  -0.075  -0.680   0.186   0.076   0.430
 total augmentation occupancy for first ion, spin component:           2
 -0.000  -0.000   0.000   0.000  -0.000  -0.000   0.000   0.000
 -0.000   0.000   0.000   0.000  -0.000   0.000  -0.000   0.000
  0.000   0.000  -0.000   0.000   0.000   0.000  -0.000  -0.000
  0.000   0.000   0.000   0.000  -0.000  -0.000  -0.000  -0.000
 -0.000  -0.000   0.000  -0.000   0.000  -0.000  -0.000   0.000
 -0.000   0.000   0.000  -0.000  -0.000  -0.000  -0.000   0.000
  0.000  -0.000  -0.000  -0.000  -0.000  -0.000   0.000   0.000
  0.000   0.000  -0.000  -0.000   0.000   0.000   0.000   0.000


------------------------ aborting loop because EDIFF is reached ----------------------------------------


 


 total charge     
 
# of ion       s       p       d       tot
------------------------------------------
    1        1.335   2.444   0.000   3.779
    2        0.561   0.035   0.000   0.596
    3        0.562   0.035   0.000   0.597
--------------------------------------------------
tot          2.458   2.514   0.000   4.972
 


 magnetization (x)
 
# of ion       s       p       d       tot
------------------------------------------
    1       -0.000   0.000   0.000   0.000
    2       -0.000   0.000   0.000   0.000
    3        0.000  -0.000   0.000   0.000
--------------------------------------------------
tot          0.000   0.000   0.000   0.000
 
    CHARGE:  cpu time    0.3011: real time    0.3021
    FORLOC:  cpu time    0.0147: real time    0.0147
    FORNL :  cpu time    1.6833: real time    1.6919
    STRESS:  cpu time    5.3098: real time    5.3761
    FORCOR:  cpu time    0.4824: real time    0.4836
    FORHAR:  cpu time    0.0676: real time    0.0677
    MIXING:  cpu time    0.0124: real time    0.0125
    OFIELD:  cpu time    0.0000: real time    0.0000

  FORCE on cell =-STRESS in cart. coord.  units (eV):
  Direction    XX          YY          ZZ          XY          YZ          ZX
  --------------------------------------------------------------------------------------
  Alpha Z     0.10045     0.10045     0.10045
  Ewald      30.01370   -12.25063    20.27003    26.38487    -9.13939     9.96064
  Hartree   101.99956    92.74064    87.86827     5.61240    -1.62477     2.53296
  E(xc)     -26.85330   -27.02150   -26.82285     0.10798    -0.04273     0.03325
  Local    -250.71581  -212.79158  -226.21150   -23.79036     8.42515    -8.62895
  n-local    68.44278    68.40203    68.67473     0.08300    -0.13767    -0.11915
  augment   -16.71561   -17.79240   -16.75854     0.62488    -0.13070     0.36195
  Kinetic    93.61337   108.49156    92.78933    -9.02204     2.64689    -4.13072
  Fock        0.00000     0.00000     0.00000     0.00000     0.00000     0.00000
  -------------------------------------------------------------------------------------
  Total      -0.11486    -0.12142    -0.09008     0.00073    -0.00321     0.00997
  in kB      -0.07695    -0.08134    -0.06035     0.00049    -0.00215     0.00668
  external pressure =       -0.07 kB  Pullay stress =        0.00 kB


 VOLUME and BASIS-vectors are now :
 -----------------------------------------------------------------------------
  energy-cutoff  :      400.00
  volume of cell :     2391.54
      direct lattice vectors                 reciprocal lattice vectors
    13.675000191  0.000000000  0.000000000     0.073126142  0.042219398  0.000000000
    -6.837500095 11.842897562  0.000000000     0.000000000  0.084438795  0.000000000
     0.000000000  0.000000000 14.767000198     0.000000000  0.000000000  0.067718561

  length of vectors
    13.675000191 13.675000191 14.767000198     0.084438795  0.084438795  0.067718561


 FORCES acting on ions
    electron-ion (+dipol)            ewald-force                    non-local-force                 convergence-correction
 -----------------------------------------------------------------------------------------------
   0.238E+02 0.233E+02 -.505E+02   -.260E+02 -.254E+02 0.550E+02   0.217E+01 0.211E+01 -.453E+01   -.516E-04 -.287E-04 -.686E-05
   -.397E+02 -.214E+02 0.709E+01   0.434E+02 0.235E+02 -.801E+01   -.376E+01 -.208E+01 0.919E+00   0.545E-05 0.215E-05 -.500E-06
   0.161E+02 -.165E+01 0.428E+02   -.174E+02 0.193E+01 -.470E+02   0.134E+01 -.278E+00 0.418E+01   -.109E-04 -.918E-05 -.503E-05
 -----------------------------------------------------------------------------------------------
   0.244E+00 0.252E+00 -.575E+00   -.355E-14 -.133E-14 0.000E+00   -.244E+00 -.252E+00 0.574E+00   -.570E-04 -.358E-04 -.124E-04
 
 
 POSITION                                       TOTAL-FORCE (eV/Angst)
 -----------------------------------------------------------------------------------
      7.52508      4.88487     10.46704         0.006779     -0.002393      0.024461
      8.67875      5.52433     10.18262        -0.000526     -0.000051     -0.000915
      7.11562      4.97084      9.18522        -0.006253      0.002444     -0.023545
 -----------------------------------------------------------------------------------
    total drift:                                0.000317      0.000192     -0.000505


--------------------------------------------------------------------------------------------------------



  FREE ENERGIE OF THE ION-ELECTRON SYSTEM (eV)
  ---------------------------------------------------
  free  energy   TOTEN  =       -11.19613224 eV

  energy  without entropy=      -11.19613224  energy(sigma->0) =      -11.19613224
 
 d Force =-0.1260199E-04[-0.260E-04, 0.785E-06]  d Energy =-0.1178020E-04-0.822E-06
 d Force =-0.4893858E-01[-0.490E-01,-0.489E-01]  d Ewald  =-0.4893858E-01 0.588E-08


--------------------------------------------------------------------------------------------------------


    POTLOK:  cpu time    0.7738: real time    0.7758


--------------------------------------------------------------------------------------------------------


DOING DYMAT, READING DISPLACECAR
FOR   1 OUT OF   1
 HIPREC POSITION (A)    
 -----------------------------------------------------------------------------------
 DYNMAT: Loop at J=           1
 DYNMAT: Before DIRKAR
 DYNMAT: After DIRKAR
       7.525084088759201       4.884873735870735      10.467036412174188
 DYNMAT: Loop at J=           2
 DYNMAT: Before DIRKAR
 DYNMAT: After DIRKAR
       8.678752629665857       5.524326230604190      10.182618845086454
 DYNMAT: Loop at J=           3
 DYNMAT: Before DIRKAR
 DYNMAT: After DIRKAR
       7.115615227740847       4.970840076334897       9.185216914363192
 HIPREC TOTAL-FORCE (eV/A)    
 -----------------------------------------------------------------------------------
       0.006779172178629      -0.002393471303349       0.024460505296849
      -0.000526127491979      -0.000050606761136      -0.000915426543330
      -0.006253044686650       0.002444078064485      -0.023545078753519
DYMAT: ------------------------------
DYMAT: DEGREE OF FREEDOM   1  1  1
DYMAT: ------------------------------
DYMAT: DEGREE OF FREEDOM   1  2  2
DYMAT: ------------------------------
DYMAT: DEGREE OF FREEDOM   1  3  3
DYMAT: ------------------------------
DYMAT: DEGREE OF FREEDOM   2  1  4
DYMAT: ------------------------------
DYMAT: DEGREE OF FREEDOM   2  2  5
DYMAT: ------------------------------
DYMAT: DEGREE OF FREEDOM   2  3  6
DYMAT: ------------------------------
DYMAT: DEGREE OF FREEDOM   3  1  7
DYMAT: ------------------------------
DYMAT: DEGREE OF FREEDOM   3  2  8
DYMAT: ------------------------------
DYMAT: DEGREE OF FREEDOM   3  3  9
DYMAT: LEAVING
 stress matrix after NEB project (eV)
     -0.11486      0.00073      0.00997
      0.00073     -0.12142     -0.00321
      0.00997     -0.00321     -0.09008
  FORCES: max atom, RMS     0.025495    0.020417
  FORCE total and by dimension    0.035363    0.024461
  Stress total and by dimension    0.190450    0.121421


--------------------------------------------------------------------------------------------------------


     LOOP+:  cpu time   19.8620: real time   22.7581
    4ORBIT:  cpu time    0.0000: real time    0.0000
 


 total charge     
 
# of ion       s       p       d       tot
------------------------------------------
    1        1.335   2.444   0.000   3.779
    2        0.561   0.035   0.000   0.596
    3        0.562   0.035   0.000   0.597
--------------------------------------------------
tot          2.458   2.514   0.000   4.972
 


 magnetization (x)
 
# of ion       s       p       d       tot
------------------------------------------
    1       -0.000   0.000   0.000   0.000
    2       -0.000   0.000   0.000   0.000
    3        0.000  -0.000   0.000   0.000
--------------------------------------------------
tot          0.000   0.000   0.000   0.000
 

 total amount of memory used by VASP MPI-rank0   144807. kBytes
=======================================================================

   base      :      30000. kBytes
   nonlr-proj:        348. kBytes
   fftplans  :      63994. kBytes
   grid      :      49417. kBytes
   one-center:          6. kBytes
   wavefun   :       1042. kBytes
 
  
  
 General timing and accounting informations for this job:
 ========================================================
  
                  Total CPU time used (sec):      238.190
                            User time (sec):      224.896
                          System time (sec):       13.293
                         Elapsed time (sec):      245.396
  
                   Maximum memory used (kb):      242968.
                   Average memory used (kb):           0.
  
                          Minor page faults:       101683
                          Major page faults:            1
                 Voluntary context switches:         1116
