>>>  VASP 5.4.4 with BEEF-vdw and vtst
--------------------------------------------------------
>>>  Job information
     SLURM_JOBID=8708635
     SLURM_JOB_NODELIST=cpn-u22-37
     SLURM_NNODES=1
     SLURMTMPDIR=/scratch/8708635
     working directory = /projects/academic/ericwalk/ruthbell/Ads_Ag-SSZ13/O_1/PBE
--------------------------------------------------------
>>>  Module information
--------------------------------------------------------
>>>  Running Configuration
NPROCS=16
--------------------------------------------------------
>>>  Job started at Thu Jun 23 12:15:57 EDT 2022
--------------------------------------------------------
 running on   16 total cores
 distrk:  each k-point on   16 cores,    1 groups
 distr:  one band on    4 cores,    4 groups
 using from now: INCAR     
 vasp.5.4.4.18Apr17-6-g9f103f2a35 (build Dec 31 2018 11:41:54) complex          
  
 POSCAR found type information on POSCAR  O  Si Al Ag
 POSCAR found :  4 types and     112 ions
 scaLAPACK will be used
 LDA part: xc-table for Pade appr. of Perdew
 POSCAR found type information on POSCAR  O  Si Al Ag
 POSCAR found :  4 types and     112 ions
 POSCAR, INCAR and KPOINTS ok, starting setup
 FFT: planning ...
 WAVECAR not read
 WARNING: random wavefunctions but no delay for mixing, default for NELMDL
 entering main loop
       N       E                     dE             d eps       ncg     rms          rms(c)
DAV:   1     0.436946963590E+04    0.43695E+04   -0.25517E+05  1768   0.103E+03
DAV:   2    -0.401340753813E+03   -0.47708E+04   -0.45871E+04  2072   0.297E+02
DAV:   3    -0.928731255563E+03   -0.52739E+03   -0.52340E+03  2056   0.103E+02
DAV:   4    -0.939465656680E+03   -0.10734E+02   -0.10692E+02  2104   0.162E+01
DAV:   5    -0.939749522182E+03   -0.28387E+00   -0.28352E+00  2136   0.241E+00    0.871E+01
DAV:   6    -0.608235220890E+03    0.33151E+03   -0.72410E+02  1984   0.404E+01    0.395E+01
DAV:   7    -0.677425842082E+03   -0.69191E+02   -0.36794E+02  2248   0.196E+01    0.308E+01
DAV:   8    -0.710375150843E+03   -0.32949E+02   -0.46421E+01  2112   0.116E+01    0.242E+01
DAV:   9    -0.728455470930E+03   -0.18080E+02   -0.46930E+01  2248   0.117E+01    0.165E+01
DAV:  10    -0.774879035166E+03   -0.46424E+02   -0.30442E+01  2104   0.911E+00    0.163E+01
DAV:  11    -0.810887787923E+03   -0.36009E+02   -0.17528E+01  1976   0.515E+00    0.101E+01
DAV:  12    -0.837101246002E+03   -0.26213E+02   -0.17304E+01  2104   0.524E+00    0.626E+00
DAV:  13    -0.847177235146E+03   -0.10076E+02   -0.65099E+00  2080   0.370E+00    0.338E+00
DAV:  14    -0.852815134833E+03   -0.56379E+01   -0.28183E+00  2048   0.256E+00    0.164E+00
DAV:  15    -0.855530361134E+03   -0.27152E+01   -0.14735E+00  1888   0.179E+00    0.103E+00
DAV:  16    -0.855960690386E+03   -0.43033E+00   -0.17851E-01  1920   0.807E-01    0.650E-01
DAV:  17    -0.856257561938E+03   -0.29687E+00   -0.87081E-02  1896   0.493E-01    0.277E-01
DAV:  18    -0.856335506685E+03   -0.77945E-01   -0.27065E-02  2024   0.307E-01    0.180E-01
DAV:  19    -0.856354015767E+03   -0.18509E-01   -0.63561E-03  1952   0.163E-01    0.149E-01
DAV:  20    -0.856358955719E+03   -0.49400E-02   -0.19375E-03  2008   0.112E-01    0.118E-01
DAV:  21    -0.856360272533E+03   -0.13168E-02   -0.12702E-03  2144   0.146E-01    0.653E-02
DAV:  22    -0.856361496080E+03   -0.12235E-02   -0.12340E-03  2160   0.121E-01    0.484E-02
DAV:  23    -0.856361759313E+03   -0.26323E-03   -0.70608E-04  2048   0.575E-02    0.416E-02
DAV:  24    -0.856361787763E+03   -0.28449E-04   -0.96340E-05  1888   0.228E-02    0.326E-02
DAV:  25    -0.856362077557E+03   -0.28979E-03   -0.10184E-04  1992   0.281E-02    0.191E-02
DAV:  26    -0.856362223017E+03   -0.14546E-03   -0.92413E-05  1768   0.235E-02    0.141E-02
DAV:  27    -0.856362382443E+03   -0.15943E-03   -0.90232E-05  1824   0.328E-02    0.102E-02
DAV:  28    -0.856362434904E+03   -0.52461E-04   -0.63467E-05  1904   0.177E-02    0.104E-02
DAV:  29    -0.856362437695E+03   -0.27917E-05   -0.98076E-06  1480   0.749E-03
   1 F= -.85636244E+03 E0= -.85636244E+03  d E =-.856362E+03  mag=     1.9993
 BRION: g(F)=  0.463E+00 g(S)=  0.000E+00
 bond charge predicted
       N       E                     dE             d eps       ncg     rms          rms(c)
DAV:   1    -0.856222659469E+03    0.13978E+00   -0.88103E+01  1696   0.136E+01    0.299E+00
DAV:   2    -0.856428287403E+03   -0.20563E+00   -0.19001E+00  2104   0.229E+00    0.153E+00
DAV:   3    -0.856441127841E+03   -0.12840E-01   -0.69423E-02  2040   0.574E-01    0.810E-01
DAV:   4    -0.856431772559E+03    0.93553E-02   -0.41713E-02  2048   0.459E-01    0.474E-01
DAV:   5    -0.856430083668E+03    0.16889E-02   -0.10655E-02  2240   0.304E-01    0.335E-01
DAV:   6    -0.856429741531E+03    0.34214E-03   -0.47819E-03  2192   0.181E-01    0.214E-01
DAV:   7    -0.856429201913E+03    0.53962E-03   -0.15238E-03  2072   0.133E-01    0.963E-02
DAV:   8    -0.856429140646E+03    0.61267E-04   -0.66182E-04  2200   0.101E-01    0.667E-02
DAV:   9    -0.856429230825E+03   -0.90180E-04   -0.60423E-04  2048   0.543E-02    0.634E-02
DAV:  10    -0.856429269619E+03   -0.38794E-04   -0.84141E-05  1952   0.185E-02    0.494E-02
DAV:  11    -0.856429259454E+03    0.10165E-04   -0.25052E-04  2000   0.496E-02    0.270E-02
DAV:  12    -0.856429336615E+03   -0.77161E-04   -0.84968E-05  1968   0.373E-02    0.250E-02
DAV:  13    -0.856429392692E+03   -0.56077E-04   -0.10023E-04  2128   0.453E-02    0.150E-02
DAV:  14    -0.856429425075E+03   -0.32383E-04   -0.10410E-04  2088   0.191E-02    0.147E-02
DAV:  15    -0.856429432670E+03   -0.75947E-05   -0.14106E-05  1440   0.798E-03
   2 F= -.85642943E+03 E0= -.85642943E+03  d E =-.669950E-01  mag=     2.0000
 BRION: g(F)=  0.165E+01 g(S)=  0.000E+00 retain N=  1 mean eig= 0.27
 eig:   0.267
 bond charge predicted
       N       E                     dE             d eps       ncg     rms          rms(c)
DAV:   1    -0.856638453760E+03   -0.20903E+00   -0.21994E+01  1696   0.775E+00    0.115E+00
DAV:   2    -0.856672212232E+03   -0.33758E-01   -0.65578E-01  2128   0.138E+00    0.765E-01
DAV:   3    -0.856659997906E+03    0.12214E-01   -0.28110E-02  2096   0.412E-01    0.475E-01
DAV:   4    -0.856649433151E+03    0.10565E-01   -0.18363E-02  2104   0.399E-01    0.210E-01
DAV:   5    -0.856648645008E+03    0.78814E-03   -0.99953E-03  2176   0.255E-01    0.114E-01
DAV:   6    -0.856648052995E+03    0.59201E-03   -0.34949E-03  2048   0.140E-01    0.862E-02
DAV:   7    -0.856647567996E+03    0.48500E-03   -0.41216E-04  2064   0.790E-02    0.511E-02
DAV:   8    -0.856647215772E+03    0.35222E-03   -0.32370E-04  2264   0.960E-02    0.308E-02
DAV:   9    -0.856647153318E+03    0.62454E-04   -0.31334E-04  2152   0.671E-02    0.257E-02
DAV:  10    -0.856647175103E+03   -0.21785E-04   -0.21278E-04  2008   0.348E-02    0.188E-02
DAV:  11    -0.856647184849E+03   -0.97460E-05   -0.21893E-05  1552   0.145E-02
   3 F= -.85664718E+03 E0= -.85664718E+03  d E =-.217752E+00  mag=     2.0000
 BRION: g(F)=  0.299E+00 g(S)=  0.000E+00 retain N=  1 mean eig= 0.23
 eig:   0.225
 bond charge predicted
       N       E                     dE             d eps       ncg     rms          rms(c)
DAV:   1    -0.856648301762E+03   -0.11267E-02   -0.50116E+01  1696   0.953E+00    0.263E+00
DAV:   2    -0.856764330139E+03   -0.11603E+00   -0.92891E-01  2088   0.178E+00    0.118E+00
DAV:   3    -0.856784793420E+03   -0.20463E-01   -0.47103E-02  2000   0.529E-01    0.542E-01
DAV:   4    -0.856786123697E+03   -0.13303E-02   -0.11146E-02  1960   0.234E-01    0.331E-01
DAV:   5    -0.856786756562E+03   -0.63286E-03   -0.31342E-03  2200   0.165E-01    0.212E-01
DAV:   6    -0.856786791814E+03   -0.35252E-04   -0.15993E-03  2168   0.116E-01    0.977E-02
DAV:   7    -0.856786937977E+03   -0.14616E-03   -0.51620E-04  2152   0.658E-02    0.607E-02
DAV:   8    -0.856786989889E+03   -0.51912E-04   -0.20379E-04  2016   0.309E-02    0.517E-02
DAV:   9    -0.856786999552E+03   -0.96632E-05   -0.53965E-05  1776   0.162E-02
   4 F= -.85678700E+03 E0= -.85678694E+03  d E =-.139815E+00  mag=     1.9996
 BRION: g(F)=  0.389E+00 g(S)=  0.000E+00 retain N=  2 mean eig= 0.39
 eig:   0.166  0.613
 bond charge predicted
       N       E                     dE             d eps       ncg     rms          rms(c)
DAV:   1    -0.856853419025E+03   -0.66429E-01   -0.83281E+00  1696   0.433E+00    0.104E+00
DAV:   2    -0.856870742951E+03   -0.17324E-01   -0.18709E-01  2176   0.815E-01    0.535E-01
DAV:   3    -0.856872627083E+03   -0.18841E-02   -0.93729E-03  2016   0.267E-01    0.252E-01
DAV:   4    -0.856871936495E+03    0.69059E-03   -0.37513E-03  2008   0.131E-01    0.126E-01
DAV:   5    -0.856871833265E+03    0.10323E-03   -0.94271E-04  2224   0.103E-01    0.758E-02
DAV:   6    -0.856871845782E+03   -0.12517E-04   -0.37491E-04  2288   0.559E-02    0.350E-02
DAV:   7    -0.856871839029E+03    0.67521E-05   -0.78804E-05  1992   0.232E-02
   5 F= -.85687184E+03 E0= -.85687175E+03  d E =-.848395E-01  mag=     1.9993
 BRION: g(F)=  0.175E+00 g(S)=  0.000E+00 retain N=  2 mean eig= 3.23
 eig:   0.247  6.221
 bond charge predicted
       N       E                     dE             d eps       ncg     rms          rms(c)
DAV:   1    -0.856909292881E+03   -0.37447E-01   -0.22605E+01  1696   0.600E+00    0.194E+00
DAV:   2    -0.856957873949E+03   -0.48581E-01   -0.38900E-01  2120   0.126E+00    0.953E-01
DAV:   3    -0.856970395224E+03   -0.12521E-01   -0.27299E-02  1992   0.468E-01    0.333E-01
DAV:   4    -0.856972222079E+03   -0.18269E-02   -0.40578E-03  1968   0.115E-01    0.256E-01
DAV:   5    -0.856972402100E+03   -0.18002E-03   -0.90641E-04  2192   0.110E-01    0.157E-01
DAV:   6    -0.856972856963E+03   -0.45486E-03   -0.56872E-04  1928   0.505E-02    0.743E-02
DAV:   7    -0.856972994666E+03   -0.13770E-03   -0.23973E-04  2048   0.351E-02    0.440E-02
DAV:   8    -0.856973056833E+03   -0.62167E-04   -0.53058E-05  1824   0.181E-02    0.208E-02
DAV:   9    -0.856973083445E+03   -0.26612E-04   -0.15424E-05  1552   0.792E-03    0.170E-02
DAV:  10    -0.856973105715E+03   -0.22269E-04   -0.62994E-06  1472   0.575E-03    0.131E-02
DAV:  11    -0.856973130795E+03   -0.25081E-04   -0.80558E-06  1472   0.704E-03    0.651E-03
DAV:  12    -0.856973148458E+03   -0.17663E-04   -0.52004E-06  1448   0.770E-03    0.387E-03
DAV:  13    -0.856973154983E+03   -0.65249E-05   -0.40737E-06  1432   0.443E-03
   6 F= -.85697315E+03 E0= -.85697273E+03  d E =-.101316E+00  mag=     1.9961
 BRION: g(F)=  0.171E+00 g(S)=  0.000E+00 retain N=  2 mean eig= 0.07
 eig:   0.008  0.122
 bond charge predicted
       N       E                     dE             d eps       ncg     rms          rms(c)
DAV:   1    -0.857008540352E+03   -0.35392E-01   -0.20020E+01  1696   0.565E+00    0.189E+00
DAV:   2    -0.857050561076E+03   -0.42021E-01   -0.36316E-01  2168   0.127E+00    0.110E+00
DAV:   3    -0.857061253918E+03   -0.10693E-01   -0.31991E-02  2024   0.537E-01    0.339E-01
DAV:   4    -0.857063114535E+03   -0.18606E-02   -0.70218E-03  1952   0.141E-01    0.366E-01
DAV:   5    -0.857062709625E+03    0.40491E-03   -0.10863E-03  2256   0.111E-01    0.173E-01
DAV:   6    -0.857063216517E+03   -0.50689E-03   -0.72694E-04  1952   0.661E-02    0.916E-02
DAV:   7    -0.857063291523E+03   -0.75006E-04   -0.30603E-04  2232   0.464E-02    0.370E-02
DAV:   8    -0.857063338036E+03   -0.46514E-04   -0.94473E-05  2048   0.218E-02    0.227E-02
DAV:   9    -0.857063355190E+03   -0.17154E-04   -0.13974E-05  1544   0.876E-03    0.188E-02
DAV:  10    -0.857063371276E+03   -0.16086E-04   -0.94324E-06  1440   0.667E-03    0.129E-02
DAV:  11    -0.857063386067E+03   -0.14791E-04   -0.70138E-06  1472   0.100E-02    0.605E-03
DAV:  12    -0.857063394336E+03   -0.82691E-05   -0.65000E-06  1416   0.105E-02
   7 F= -.85706339E+03 E0= -.85706274E+03  d E =-.902394E-01  mag=     1.9937
 BRION: g(F)=  0.137E+00 g(S)=  0.000E+00 retain N=  3 mean eig= 1.07
 eig:   0.198  2.195  0.806
 bond charge predicted
       N       E                     dE             d eps       ncg     rms          rms(c)
DAV:   1    -0.857038100559E+03    0.25286E-01   -0.44972E+01  1696   0.869E+00    0.281E+00
DAV:   2    -0.857133685143E+03   -0.95585E-01   -0.87349E-01  2112   0.195E+00    0.179E+00
DAV:   3    -0.857154681923E+03   -0.20997E-01   -0.74181E-02  2000   0.832E-01    0.496E-01
DAV:   4    -0.857158813358E+03   -0.41314E-02   -0.19783E-02  2008   0.245E-01    0.764E-01
DAV:   5    -0.857156880360E+03    0.19330E-02   -0.33009E-03  2192   0.177E-01    0.265E-01
DAV:   6    -0.857158017643E+03   -0.11373E-02   -0.25923E-03  2160   0.141E-01    0.157E-01
DAV:   7    -0.857158284094E+03   -0.26645E-03   -0.58554E-04  2152   0.737E-02    0.638E-02
DAV:   8    -0.857158482058E+03   -0.19796E-03   -0.24259E-04  2048   0.384E-02    0.353E-02
DAV:   9    -0.857158559574E+03   -0.77516E-04   -0.48806E-05  1904   0.170E-02    0.238E-02
DAV:  10    -0.857158603650E+03   -0.44076E-04   -0.13942E-05  1504   0.939E-03    0.162E-02
DAV:  11    -0.857158655638E+03   -0.51988E-04   -0.10387E-05  1480   0.117E-02    0.876E-03
DAV:  12    -0.857158703630E+03   -0.47992E-04   -0.14608E-05  1568   0.160E-02    0.542E-03
DAV:  13    -0.857158714761E+03   -0.11131E-04   -0.12093E-05  1464   0.861E-03    0.538E-03
DAV:  14    -0.857158718425E+03   -0.36636E-05   -0.34027E-06  1416   0.429E-03
   8 F= -.85715872E+03 E0= -.85715774E+03  d E =-.953241E-01  mag=     1.9903
 BRION: g(F)=  0.188E+00 g(S)=  0.000E+00 retain N=  3 mean eig= 2.75
 eig:   7.339  0.435  0.468
 bond charge predicted
       N       E                     dE             d eps       ncg     rms          rms(c)
DAV:   1    -0.856992894636E+03    0.16582E+00   -0.92195E+01  1696   0.118E+01    0.383E+00
DAV:   2    -0.857189049369E+03   -0.19615E+00   -0.18090E+00  2064   0.271E+00    0.250E+00
DAV:   3    -0.857234821950E+03   -0.45773E-01   -0.15022E-01  1984   0.113E+00    0.699E-01
DAV:   4    -0.857242139637E+03   -0.73177E-02   -0.41112E-02  1984   0.329E-01    0.107E+00
DAV:   5    -0.857238775776E+03    0.33639E-02   -0.61568E-03  2152   0.246E-01    0.385E-01
DAV:   6    -0.857240912090E+03   -0.21363E-02   -0.44726E-03  2224   0.201E-01    0.220E-01
DAV:   7    -0.857241389882E+03   -0.47779E-03   -0.11381E-03  2144   0.936E-02    0.102E-01
DAV:   8    -0.857241791074E+03   -0.40119E-03   -0.43194E-04  2128   0.513E-02    0.691E-02
DAV:   9    -0.857241968472E+03   -0.17740E-03   -0.96621E-05  1992   0.271E-02    0.270E-02
DAV:  10    -0.857242073883E+03   -0.10541E-03   -0.35104E-05  1696   0.181E-02    0.190E-02
DAV:  11    -0.857242129402E+03   -0.55519E-04   -0.18290E-05  1528   0.112E-02    0.148E-02
DAV:  12    -0.857242191664E+03   -0.62261E-04   -0.10967E-05  1480   0.118E-02    0.724E-03
DAV:  13    -0.857242248616E+03   -0.56952E-04   -0.14831E-05  1568   0.140E-02    0.746E-03
DAV:  14    -0.857242259413E+03   -0.10797E-04   -0.95818E-06  1472   0.785E-03    0.557E-03
DAV:  15    -0.857242264727E+03   -0.53133E-05   -0.34878E-06  1400   0.531E-03
   9 F= -.85724226E+03 E0= -.85724113E+03  d E =-.835463E-01  mag=     1.9885
 BRION: g(F)=  0.155E+00 g(S)=  0.000E+00 retain N=  3 mean eig= 1.08
 eig:   0.530  1.353  1.353
 bond charge predicted
       N       E                     dE             d eps       ncg     rms          rms(c)
DAV:   1    -0.857117595970E+03    0.12466E+00   -0.43637E+01  1696   0.778E+00    0.293E+00
DAV:   2    -0.857211796121E+03   -0.94200E-01   -0.96821E-01  2152   0.193E+00    0.263E+00
DAV:   3    -0.857219429494E+03   -0.76334E-02   -0.82908E-02  1992   0.869E-01    0.938E-01
DAV:   4    -0.857227512140E+03   -0.80826E-02   -0.20764E-02  1920   0.294E-01    0.565E-01
DAV:   5    -0.857226635396E+03    0.87674E-03   -0.69437E-03  2192   0.208E-01    0.262E-01
DAV:   6    -0.857227597689E+03   -0.96229E-03   -0.37628E-03  2320   0.201E-01    0.169E-01
DAV:   7    -0.857227659328E+03   -0.61638E-04   -0.76578E-04  2144   0.648E-02    0.933E-02
DAV:   8    -0.857227641534E+03    0.17794E-04   -0.13905E-04  2064   0.474E-02    0.369E-02
DAV:   9    -0.857227649470E+03   -0.79360E-05   -0.81501E-05  2160   0.369E-02
  10 F= -.85722765E+03 E0= -.85722714E+03  d E =0.146153E-01  mag=     1.9934
 BRION: g(F)=  0.810E-01 g(S)=  0.000E+00 retain N=  3 mean eig= 2.64
 eig:   6.706  0.602  0.602
 bond charge predicted
       N       E                     dE             d eps       ncg     rms          rms(c)
DAV:   1    -0.857241903669E+03   -0.14262E-01   -0.16540E+01  1696   0.520E+00    0.141E+00
DAV:   2    -0.857270019409E+03   -0.28116E-01   -0.25859E-01  2080   0.950E-01    0.855E-01
DAV:   3    -0.857276943073E+03   -0.69237E-02   -0.19289E-02  2000   0.427E-01    0.278E-01
DAV:   4    -0.857277471021E+03   -0.52795E-03   -0.39727E-03  2032   0.108E-01    0.222E-01
DAV:   5    -0.857277383363E+03    0.87657E-04   -0.80574E-04  2312   0.932E-02    0.128E-01
DAV:   6    -0.857277571177E+03   -0.18781E-03   -0.42634E-04  1968   0.532E-02    0.484E-02
DAV:   7    -0.857277612576E+03   -0.41399E-04   -0.17485E-04  2016   0.257E-02    0.281E-02
DAV:   8    -0.857277632564E+03   -0.19988E-04   -0.20954E-05  1544   0.969E-03    0.187E-02
DAV:   9    -0.857277655281E+03   -0.22717E-04   -0.11003E-05  1472   0.113E-02    0.747E-03
DAV:  10    -0.857277665504E+03   -0.10223E-04   -0.67930E-06  1456   0.811E-03    0.556E-03
DAV:  11    -0.857277669014E+03   -0.35104E-05   -0.44778E-06  1456   0.452E-03
  11 F= -.85727767E+03 E0= -.85727729E+03  d E =-.500195E-01  mag=     1.9965
 BRION: g(F)=  0.490E-01 g(S)=  0.000E+00 retain N=  3 mean eig= 1.54
 eig:   4.034  0.493  0.094
 bond charge predicted
       N       E                     dE             d eps       ncg     rms          rms(c)
DAV:   1    -0.857291011077E+03   -0.13346E-01   -0.52835E+00  1696   0.297E+00    0.739E-01
DAV:   2    -0.857299163810E+03   -0.81527E-02   -0.77929E-02  2056   0.504E-01    0.437E-01
DAV:   3    -0.857301082429E+03   -0.19186E-02   -0.53477E-03  2040   0.224E-01    0.155E-01
DAV:   4    -0.857301127615E+03   -0.45186E-04   -0.11239E-03  2080   0.635E-02    0.111E-01
DAV:   5    -0.857301105992E+03    0.21623E-04   -0.27291E-04  2336   0.563E-02    0.757E-02
DAV:   6    -0.857301137164E+03   -0.31172E-04   -0.13804E-04  2016   0.374E-02    0.267E-02
DAV:   7    -0.857301155464E+03   -0.18300E-04   -0.79158E-05  1992   0.182E-02    0.163E-02
DAV:   8    -0.857301162748E+03   -0.72844E-05   -0.86733E-06  1488   0.685E-03
  12 F= -.85730116E+03 E0= -.85730088E+03  d E =-.234937E-01  mag=     1.9974
 BRION: g(F)=  0.433E-01 g(S)=  0.000E+00 retain N=  3 mean eig= 1.88
 eig:   5.245  0.196  0.196
 bond charge predicted
       N       E                     dE             d eps       ncg     rms          rms(c)
DAV:   1    -0.857312670277E+03   -0.11515E-01   -0.59781E+00  1696   0.315E+00    0.698E-01
DAV:   2    -0.857320844480E+03   -0.81742E-02   -0.81429E-02  2048   0.489E-01    0.412E-01
DAV:   3    -0.857322716912E+03   -0.18724E-02   -0.48182E-03  2016   0.212E-01    0.164E-01
DAV:   4    -0.857322648734E+03    0.68178E-04   -0.12447E-03  2072   0.685E-02    0.104E-01
DAV:   5    -0.857322632224E+03    0.16510E-04   -0.28733E-04  2256   0.617E-02    0.826E-02
DAV:   6    -0.857322650333E+03   -0.18109E-04   -0.16072E-04  2224   0.438E-02    0.263E-02
DAV:   7    -0.857322671054E+03   -0.20721E-04   -0.98803E-05  2016   0.191E-02    0.194E-02
DAV:   8    -0.857322677402E+03   -0.63477E-05   -0.80450E-06  1496   0.656E-03
  13 F= -.85732268E+03 E0= -.85732249E+03  d E =-.215147E-01  mag=     1.9983
 BRION: g(F)=  0.455E-01 g(S)=  0.000E+00 retain N=  2 mean eig= 0.43
 eig:   0.127  0.741
 bond charge predicted
       N       E                     dE             d eps       ncg     rms          rms(c)
DAV:   1    -0.857332397073E+03   -0.97260E-02   -0.21718E+00  1696   0.209E+00    0.414E-01
DAV:   2    -0.857335573634E+03   -0.31766E-02   -0.36508E-02  2112   0.332E-01    0.244E-01
DAV:   3    -0.857336020704E+03   -0.44707E-03   -0.17636E-03  2056   0.128E-01    0.108E-01
DAV:   4    -0.857335910675E+03    0.11003E-03   -0.55159E-04  2080   0.471E-02    0.645E-02
DAV:   5    -0.857335893395E+03    0.17280E-04   -0.16795E-04  2208   0.417E-02    0.503E-02
DAV:   6    -0.857335901882E+03   -0.84873E-05   -0.65993E-05  2088   0.261E-02
  14 F= -.85733590E+03 E0= -.85733579E+03  d E =-.132245E-01  mag=     1.9989
 BRION: g(F)=  0.305E-01 g(S)=  0.000E+00 retain N=  2 mean eig= 1.02
 eig:   0.204  1.845
 bond charge predicted
       N       E                     dE             d eps       ncg     rms          rms(c)
DAV:   1    -0.857345702272E+03   -0.98089E-02   -0.38106E+00  1712   0.249E+00    0.520E-01
DAV:   2    -0.857350574940E+03   -0.48727E-02   -0.48012E-02  2032   0.360E-01    0.296E-01
DAV:   3    -0.857351798588E+03   -0.12236E-02   -0.24250E-03  2032   0.149E-01    0.124E-01
DAV:   4    -0.857351776477E+03    0.22111E-04   -0.61249E-04  2056   0.466E-02    0.761E-02
DAV:   5    -0.857351791407E+03   -0.14930E-04   -0.15380E-04  2184   0.438E-02    0.588E-02
DAV:   6    -0.857351816316E+03   -0.24909E-04   -0.81451E-05  2144   0.299E-02    0.179E-02
DAV:   7    -0.857351832681E+03   -0.16364E-04   -0.37048E-05  1744   0.117E-02    0.133E-02
DAV:   8    -0.857351839414E+03   -0.67337E-05   -0.43805E-06  1488   0.484E-03
  15 F= -.85735184E+03 E0= -.85735176E+03  d E =-.159375E-01  mag=     1.9994
 BRION: g(F)=  0.278E-01 g(S)=  0.000E+00 retain N=  2 mean eig= 0.23
 eig:   0.204  0.247
 bond charge predicted
       N       E                     dE             d eps       ncg     rms          rms(c)
DAV:   1    -0.857360264896E+03   -0.84322E-02   -0.24502E+00  1696   0.201E+00    0.414E-01
DAV:   2    -0.857363381448E+03   -0.31166E-02   -0.31514E-02  2032   0.293E-01    0.237E-01
DAV:   3    -0.857364153161E+03   -0.77171E-03   -0.15927E-03  2024   0.122E-01    0.102E-01
DAV:   4    -0.857364103559E+03    0.49602E-04   -0.41369E-04  2064   0.416E-02    0.611E-02
DAV:   5    -0.857364094470E+03    0.90886E-05   -0.11683E-04  2152   0.413E-02    0.491E-02
DAV:   6    -0.857364099950E+03   -0.54800E-05   -0.67708E-05  2184   0.293E-02
  16 F= -.85736410E+03 E0= -.85736406E+03  d E =-.122605E-01  mag=     1.9996
 BRION: g(F)=  0.222E-01 g(S)=  0.000E+00 retain N=  2 mean eig= 1.25
 eig:   0.153  2.343
 bond charge predicted
       N       E                     dE             d eps       ncg     rms          rms(c)
DAV:   1    -0.857371282762E+03   -0.71883E-02   -0.48491E+00  1696   0.279E+00    0.584E-01
DAV:   2    -0.857377420386E+03   -0.61376E-02   -0.59214E-02  1992   0.392E-01    0.326E-01
DAV:   3    -0.857379144288E+03   -0.17239E-02   -0.29034E-03  2008   0.165E-01    0.136E-01
DAV:   4    -0.857379154468E+03   -0.10180E-04   -0.67958E-04  2032   0.500E-02    0.832E-02
DAV:   5    -0.857379186873E+03   -0.32406E-04   -0.19633E-04  2176   0.494E-02    0.614E-02
DAV:   6    -0.857379225600E+03   -0.38726E-04   -0.89456E-05  2096   0.320E-02    0.197E-02
DAV:   7    -0.857379245345E+03   -0.19745E-04   -0.33762E-05  1672   0.110E-02    0.155E-02
DAV:   8    -0.857379254258E+03   -0.89127E-05   -0.46822E-06  1480   0.469E-03
  17 F= -.85737925E+03 E0= -.85737923E+03  d E =-.151543E-01  mag=     1.9998
 BRION: g(F)=  0.235E-01 g(S)=  0.000E+00 retain N=  2 mean eig= 0.46
 eig:   0.089  0.823
 bond charge predicted
       N       E                     dE             d eps       ncg     rms          rms(c)
DAV:   1    -0.857384043807E+03   -0.47985E-02   -0.99123E-01  1696   0.143E+00    0.243E-01
DAV:   2    -0.857385393844E+03   -0.13500E-02   -0.16344E-02  2096   0.214E-01    0.146E-01
DAV:   3    -0.857385506385E+03   -0.11254E-03   -0.67115E-04  2032   0.749E-02    0.756E-02
DAV:   4    -0.857385429167E+03    0.77218E-04   -0.26118E-04  2048   0.332E-02    0.398E-02
DAV:   5    -0.857385422074E+03    0.70923E-05   -0.81242E-05  2112   0.285E-02
  18 F= -.85738542E+03 E0= -.85738541E+03  d E =-.616782E-02  mag=     1.9999
 BRION: g(F)=  0.191E-01 g(S)=  0.000E+00 retain N=  2 mean eig= 1.03
 eig:   0.195  1.857
 bond charge predicted
       N       E                     dE             d eps       ncg     rms          rms(c)
DAV:   1    -0.857391301799E+03   -0.58726E-02   -0.23262E+00  1712   0.199E+00    0.385E-01
DAV:   2    -0.857394228472E+03   -0.29267E-02   -0.29622E-02  2008   0.277E-01    0.211E-01
DAV:   3    -0.857394970549E+03   -0.74208E-03   -0.12312E-03  2040   0.105E-01    0.966E-02
DAV:   4    -0.857394934866E+03    0.35683E-04   -0.34376E-04  2024   0.367E-02    0.541E-02
DAV:   5    -0.857394942831E+03   -0.79650E-05   -0.10285E-04  2136   0.364E-02    0.428E-02
DAV:   6    -0.857394953031E+03   -0.10200E-04   -0.47936E-05  1928   0.241E-02    0.146E-02
DAV:   7    -0.857394957794E+03   -0.47630E-05   -0.16494E-05  1584   0.811E-03
  19 F= -.85739496E+03 E0= -.85739495E+03  d E =-.953572E-02  mag=     1.9999
 BRION: g(F)=  0.175E-01 g(S)=  0.000E+00 retain N=  2 mean eig= 0.35
 eig:   0.215  0.494
 bond charge predicted
       N       E                     dE             d eps       ncg     rms          rms(c)
DAV:   1    -0.857399705482E+03   -0.47525E-02   -0.10889E+00  1728   0.140E+00    0.264E-01
DAV:   2    -0.857401148527E+03   -0.14430E-02   -0.14814E-02  2032   0.199E-01    0.147E-01
DAV:   3    -0.857401426269E+03   -0.27774E-03   -0.63389E-04  2072   0.763E-02    0.698E-02
DAV:   4    -0.857401386361E+03    0.39908E-04   -0.18159E-04  2008   0.310E-02    0.395E-02
DAV:   5    -0.857401380924E+03    0.54364E-05   -0.68363E-05  2120   0.293E-02
  20 F= -.85740138E+03 E0= -.85740138E+03  d E =-.642313E-02  mag=     1.9999
 BRION: g(F)=  0.125E-01 g(S)=  0.000E+00 retain N=  2 mean eig= 0.89
 eig:   0.157  1.617
 bond charge predicted
       N       E                     dE             d eps       ncg     rms          rms(c)
DAV:   1    -0.857405996330E+03   -0.46100E-02   -0.29654E+00  1696   0.216E+00    0.431E-01
DAV:   2    -0.857409667018E+03   -0.36707E-02   -0.34799E-02  1936   0.288E-01    0.235E-01
DAV:   3    -0.857410772172E+03   -0.11052E-02   -0.14556E-03  2016   0.112E-01    0.107E-01
DAV:   4    -0.857410786031E+03   -0.13858E-04   -0.37657E-04  1992   0.356E-02    0.607E-02
DAV:   5    -0.857410824900E+03   -0.38869E-04   -0.96387E-05  2160   0.353E-02    0.476E-02
DAV:   6    -0.857410842958E+03   -0.18058E-04   -0.51258E-05  1888   0.246E-02    0.154E-02
DAV:   7    -0.857410851904E+03   -0.89460E-05   -0.16910E-05  1576   0.751E-03
  21 F= -.85741085E+03 E0= -.85741085E+03  d E =-.947098E-02  mag=     2.0000
 BRION: g(F)=  0.128E-01 g(S)=  0.000E+00 retain N=  2 mean eig= 0.38
 eig:   0.092  0.661
 bond charge predicted
       N       E                     dE             d eps       ncg     rms          rms(c)
DAV:   1    -0.857413881442E+03   -0.30385E-02   -0.71919E-01  1696   0.119E+00    0.204E-01
DAV:   2    -0.857414889629E+03   -0.10082E-02   -0.10911E-02  2048   0.169E-01    0.114E-01
DAV:   3    -0.857415000450E+03   -0.11082E-03   -0.38598E-04  1952   0.576E-02    0.580E-02
DAV:   4    -0.857414961609E+03    0.38841E-04   -0.14159E-04  2024   0.257E-02    0.302E-02
DAV:   5    -0.857414963149E+03   -0.15402E-05   -0.53349E-05  2064   0.224E-02
  22 F= -.85741496E+03 E0= -.85741496E+03  d E =-.411125E-02  mag=     2.0000
 BRION: g(F)=  0.117E-01 g(S)=  0.000E+00 retain N=  2 mean eig= 1.08
 eig:   0.147  2.012
 bond charge predicted
       N       E                     dE             d eps       ncg     rms          rms(c)
DAV:   1    -0.857418504437E+03   -0.35428E-02   -0.15422E+00  1696   0.164E+00    0.302E-01
DAV:   2    -0.857420501637E+03   -0.19972E-02   -0.19961E-02  1984   0.223E-01    0.166E-01
DAV:   3    -0.857420971727E+03   -0.47009E-03   -0.73845E-04  2016   0.789E-02    0.812E-02
DAV:   4    -0.857420943344E+03    0.28383E-04   -0.22594E-04  1976   0.314E-02    0.441E-02
DAV:   5    -0.857420952393E+03   -0.90486E-05   -0.73810E-05  2152   0.291E-02
  23 F= -.85742095E+03 E0= -.85742095E+03  d E =-.598924E-02  mag=     2.0000
 BRION: g(F)=  0.113E-01 g(S)=  0.000E+00 retain N=  2 mean eig= 0.42
 eig:   0.201  0.648
 bond charge predicted
       N       E                     dE             d eps       ncg     rms          rms(c)
DAV:   1    -0.857423640710E+03   -0.26974E-02   -0.49533E-01  1712   0.986E-01    0.165E-01
DAV:   2    -0.857424316916E+03   -0.67621E-03   -0.74260E-03  2008   0.141E-01    0.904E-02
DAV:   3    -0.857424375885E+03   -0.58970E-04   -0.27535E-04  2000   0.468E-02    0.471E-02
DAV:   4    -0.857424339939E+03    0.35947E-04   -0.97210E-05  1944   0.244E-02    0.229E-02
DAV:   5    -0.857424336828E+03    0.31107E-05   -0.39791E-05  1904   0.220E-02
  24 F= -.85742434E+03 E0= -.85742434E+03  d E =-.338444E-02  mag=     2.0000
 BRION: g(F)=  0.824E-02 g(S)=  0.000E+00 retain N=  2 mean eig= 0.76
 eig:   0.185  1.339
 bond charge predicted
       N       E                     dE             d eps       ncg     rms          rms(c)
DAV:   1    -0.857427344824E+03   -0.30049E-02   -0.14780E+00  1696   0.156E+00    0.292E-01
DAV:   2    -0.857429256597E+03   -0.19118E-02   -0.17943E-02  1904   0.203E-01    0.156E-01
DAV:   3    -0.857429776913E+03   -0.52032E-03   -0.60657E-04  1976   0.707E-02    0.759E-02
DAV:   4    -0.857429776494E+03    0.41834E-06   -0.17509E-04  1952   0.265E-02    0.407E-02
DAV:   5    -0.857429793237E+03   -0.16743E-04   -0.55770E-05  2008   0.242E-02    0.315E-02
DAV:   6    -0.857429799438E+03   -0.62009E-05   -0.21260E-05  1656   0.163E-02
  25 F= -.85742980E+03 E0= -.85742980E+03  d E =-.546261E-02  mag=     2.0000
 BRION: g(F)=  0.728E-02 g(S)=  0.000E+00 retain N=  2 mean eig= 0.43
 eig:   0.117  0.738
 bond charge predicted
       N       E                     dE             d eps       ncg     rms          rms(c)
DAV:   1    -0.857431973745E+03   -0.21805E-02   -0.58445E-01  1696   0.103E+00    0.185E-01
DAV:   2    -0.857432797282E+03   -0.82354E-03   -0.81099E-03  2000   0.143E-01    0.105E-01
DAV:   3    -0.857432940370E+03   -0.14309E-03   -0.31377E-04  1976   0.515E-02    0.518E-02
DAV:   4    -0.857432922529E+03    0.17842E-04   -0.98112E-05  1920   0.200E-02    0.286E-02
DAV:   5    -0.857432923151E+03   -0.62215E-06   -0.27486E-05  1696   0.187E-02
  26 F= -.85743292E+03 E0= -.85743292E+03  d E =-.312371E-02  mag=     2.0000
 BRION: g(F)=  0.689E-02 g(S)=  0.000E+00 retain N=  2 mean eig= 1.08
 eig:   0.151  2.016
 bond charge predicted
       N       E                     dE             d eps       ncg     rms          rms(c)
DAV:   1    -0.857435222778E+03   -0.23002E-02   -0.13877E+00  1696   0.154E+00    0.278E-01
DAV:   2    -0.857437068884E+03   -0.18461E-02   -0.17531E-02  1928   0.201E-01    0.149E-01
DAV:   3    -0.857437534351E+03   -0.46547E-03   -0.55382E-04  1984   0.664E-02    0.740E-02
DAV:   4    -0.857437523881E+03    0.10471E-04   -0.16879E-04  1952   0.274E-02    0.381E-02
DAV:   5    -0.857437536298E+03   -0.12417E-04   -0.53746E-05  2040   0.255E-02    0.299E-02
DAV:   6    -0.857437540600E+03   -0.43023E-05   -0.24270E-05  1664   0.170E-02
  27 F= -.85743754E+03 E0= -.85743754E+03  d E =-.461745E-02  mag=     2.0000
 BRION: g(F)=  0.708E-02 g(S)=  0.000E+00 retain N=  2 mean eig= 0.38
 eig:   0.118  0.634
 bond charge predicted
       N       E                     dE             d eps       ncg     rms          rms(c)
DAV:   1    -0.857438631029E+03   -0.10947E-02   -0.14864E-01  1776   0.604E-01    0.854E-02
DAV:   2    -0.857438851080E+03   -0.22005E-03   -0.30560E-03  2056   0.935E-02    0.518E-02
DAV:   3    -0.857438811763E+03    0.39318E-04   -0.12164E-04  1920   0.306E-02    0.303E-02
DAV:   4    -0.857438781866E+03    0.29896E-04   -0.46799E-05  1976   0.201E-02    0.142E-02
DAV:   5    -0.857438774407E+03    0.74599E-05   -0.25103E-05  1624   0.177E-02
  28 F= -.85743877E+03 E0= -.85743877E+03  d E =-.123381E-02  mag=     2.0000
 BRION: g(F)=  0.586E-02 g(S)=  0.000E+00 retain N=  2 mean eig= 0.60
 eig:   0.193  1.005
 bond charge predicted
       N       E                     dE             d eps       ncg     rms          rms(c)
DAV:   1    -0.857440788330E+03   -0.20065E-02   -0.10192E+00  1696   0.132E+00    0.239E-01
DAV:   2    -0.857442201946E+03   -0.14136E-02   -0.13071E-02  1912   0.172E-01    0.130E-01
DAV:   3    -0.857442544431E+03   -0.34248E-03   -0.42007E-04  1984   0.571E-02    0.664E-02
DAV:   4    -0.857442536215E+03    0.82159E-05   -0.12959E-04  1904   0.221E-02    0.350E-02
DAV:   5    -0.857442542980E+03   -0.67647E-05   -0.35374E-05  1784   0.203E-02
  29 F= -.85744254E+03 E0= -.85744254E+03  d E =-.376857E-02  mag=     2.0000
 BRION: g(F)=  0.482E-02 g(S)=  0.000E+00 retain N=  2 mean eig= 0.45
 eig:   0.170  0.730
 bond charge predicted
       N       E                     dE             d eps       ncg     rms          rms(c)
DAV:   1    -0.857443923006E+03   -0.13868E-02   -0.31032E-01  1696   0.776E-01    0.125E-01
DAV:   2    -0.857444380189E+03   -0.45718E-03   -0.45162E-03  1968   0.105E-01    0.651E-02
DAV:   3    -0.857444433123E+03   -0.52934E-04   -0.12848E-04  1856   0.298E-02    0.343E-02
DAV:   4    -0.857444418662E+03    0.14461E-04   -0.47133E-05  1856   0.169E-02    0.159E-02
DAV:   5    -0.857444419024E+03   -0.36230E-06   -0.17502E-05  1472   0.136E-02
  30 F= -.85744442E+03 E0= -.85744442E+03  d E =-.187604E-02  mag=     2.0000
 BRION: g(F)=  0.449E-02 g(S)=  0.000E+00 retain N=  2 mean eig= 1.09
 eig:   0.153  2.032
 bond charge predicted
       N       E                     dE             d eps       ncg     rms          rms(c)
DAV:   1    -0.857445927370E+03   -0.15087E-02   -0.11093E+00  1696   0.140E+00    0.245E-01
DAV:   2    -0.857447493505E+03   -0.15661E-02   -0.14480E-02  1872   0.179E-01    0.131E-01
DAV:   3    -0.857447874806E+03   -0.38130E-03   -0.41213E-04  1960   0.552E-02    0.680E-02
DAV:   4    -0.857447868086E+03    0.67206E-05   -0.12972E-04  1896   0.236E-02    0.350E-02
DAV:   5    -0.857447877429E+03   -0.93430E-05   -0.41775E-05  1856   0.206E-02
  31 F= -.85744788E+03 E0= -.85744788E+03  d E =-.345840E-02  mag=     2.0000
 BRION: g(F)=  0.435E-02 g(S)=  0.000E+00 retain N=  2 mean eig= 0.58
 eig:   0.105  1.054
 bond charge predicted
       N       E                     dE             d eps       ncg     rms          rms(c)
DAV:   1    -0.857448408071E+03   -0.53998E-03   -0.74657E-02  1744   0.443E-01    0.575E-02
DAV:   2    -0.857448516124E+03   -0.10805E-03   -0.17630E-03  2072   0.705E-02    0.356E-02
DAV:   3    -0.857448481921E+03    0.34204E-04   -0.73463E-05  2000   0.216E-02    0.218E-02
DAV:   4    -0.857448462462E+03    0.19459E-04   -0.28500E-05  1760   0.166E-02    0.964E-03
DAV:   5    -0.857448458581E+03    0.38809E-05   -0.18340E-05  1520   0.134E-02
  32 F= -.85744846E+03 E0= -.85744846E+03  d E =-.581152E-03  mag=     2.0000
 BRION: g(F)=  0.429E-02 g(S)=  0.000E+00 retain N=  2 mean eig= 0.45
 eig:   0.219  0.684
 bond charge predicted
       N       E                     dE             d eps       ncg     rms          rms(c)
DAV:   1    -0.857449831889E+03   -0.13694E-02   -0.75210E-01  1728   0.117E+00    0.201E-01
DAV:   2    -0.857450950609E+03   -0.11187E-02   -0.10245E-02  1872   0.151E-01    0.108E-01
DAV:   3    -0.857451188073E+03   -0.23746E-03   -0.27648E-04  1952   0.446E-02    0.568E-02
DAV:   4    -0.857451178910E+03    0.91632E-05   -0.92011E-05  1896   0.210E-02
  33 F= -.85745118E+03 E0= -.85745118E+03  d E =-.272033E-02  mag=     2.0000
 BRION: g(F)=  0.334E-02 g(S)=  0.000E+00 retain N=  2 mean eig= 0.46
 eig:   0.187  0.736
 bond charge predicted
       N       E                     dE             d eps       ncg     rms          rms(c)
DAV:   1    -0.857452026803E+03   -0.83873E-03   -0.14630E-01  1752   0.547E-01    0.895E-02
DAV:   2    -0.857452261497E+03   -0.23469E-03   -0.22774E-03  1880   0.751E-02    0.465E-02
DAV:   3    -0.857452276519E+03   -0.15022E-04   -0.63412E-05  1792   0.184E-02    0.262E-02
DAV:   4    -0.857452268638E+03    0.78815E-05   -0.25127E-05  1648   0.140E-02
  34 F= -.85745227E+03 E0= -.85745227E+03  d E =-.108973E-02  mag=     2.0000
 BRION: g(F)=  0.300E-02 g(S)=  0.000E+00 retain N=  2 mean eig= 0.88
 eig:   0.163  1.606
 bond charge predicted
       N       E                     dE             d eps       ncg     rms          rms(c)
DAV:   1    -0.857453303359E+03   -0.10268E-02   -0.86954E-01  1696   0.125E+00    0.215E-01
DAV:   2    -0.857454602853E+03   -0.12995E-02   -0.11697E-02  1832   0.157E-01    0.113E-01
DAV:   3    -0.857454903219E+03   -0.30037E-03   -0.28701E-04  1944   0.434E-02    0.597E-02
DAV:   4    -0.857454904491E+03   -0.12719E-05   -0.93823E-05  1808   0.199E-02
  35 F= -.85745490E+03 E0= -.85745490E+03  d E =-.263585E-02  mag=     2.0000
 BRION: g(F)=  0.264E-02 g(S)=  0.000E+00 retain N=  2 mean eig= 0.54
 eig:   0.073  1.003
 bond charge predicted
       N       E                     dE             d eps       ncg     rms          rms(c)
DAV:   1    -0.857455408274E+03   -0.50505E-03   -0.11150E-01  1800   0.514E-01    0.751E-02
DAV:   2    -0.857455590133E+03   -0.18186E-03   -0.21060E-03  2008   0.759E-02    0.410E-02
DAV:   3    -0.857455573119E+03    0.17014E-04   -0.69438E-05  1800   0.203E-02    0.241E-02
DAV:   4    -0.857455557723E+03    0.15396E-04   -0.25814E-05  1664   0.163E-02    0.122E-02
DAV:   5    -0.857455555500E+03    0.22226E-05   -0.19936E-05  1552   0.135E-02
  36 F= -.85745556E+03 E0= -.85745556E+03  d E =-.651009E-03  mag=     2.0000
 BRION: g(F)=  0.366E-02 g(S)=  0.000E+00 retain N=  2 mean eig= 0.09
 eig:   0.093  0.093
 bond charge predicted
       N       E                     dE             d eps       ncg     rms          rms(c)
DAV:   1    -0.857456414352E+03   -0.85663E-03   -0.84791E-01  1696   0.127E+00    0.210E-01
DAV:   2    -0.857457710822E+03   -0.12965E-02   -0.12081E-02  1904   0.164E-01    0.114E-01
DAV:   3    -0.857457983983E+03   -0.27316E-03   -0.31789E-04  1944   0.465E-02    0.614E-02
DAV:   4    -0.857457974757E+03    0.92261E-05   -0.10739E-04  1880   0.214E-02    0.303E-02
DAV:   5    -0.857457979554E+03   -0.47972E-05   -0.31462E-05  1720   0.180E-02
  37 F= -.85745798E+03 E0= -.85745798E+03  d E =-.242405E-02  mag=     2.0000
 BRION: g(F)=  0.290E-02 g(S)=  0.000E+00 retain N=  2 mean eig= 0.59
 eig:   0.174  1.011
 bond charge predicted
       N       E                     dE             d eps       ncg     rms          rms(c)
DAV:   1    -0.857457804224E+03    0.17053E-03   -0.33222E-02  1728   0.296E-01    0.405E-02
DAV:   2    -0.857457848939E+03   -0.44715E-04   -0.83046E-04  2056   0.487E-02    0.303E-02
DAV:   3    -0.857457830913E+03    0.18026E-04   -0.31793E-05  1816   0.159E-02    0.201E-02
DAV:   4    -0.857457819429E+03    0.11484E-04   -0.19218E-05  1624   0.120E-02    0.101E-02
DAV:   5    -0.857457816958E+03    0.24707E-05   -0.13019E-05  1472   0.988E-03
  38 F= -.85745782E+03 E0= -.85745782E+03  d E =0.162596E-03  mag=     2.0000
 BRION: g(F)=  0.224E-02 g(S)=  0.000E+00 retain N=  2 mean eig= 0.78
 eig:   0.231  1.339
 bond charge predicted
       N       E                     dE             d eps       ncg     rms          rms(c)
DAV:   1    -0.857458569522E+03   -0.75009E-03   -0.62466E-01  1696   0.110E+00    0.181E-01
DAV:   2    -0.857459587030E+03   -0.10175E-02   -0.91519E-03  1840   0.138E-01    0.964E-02
DAV:   3    -0.857459801019E+03   -0.21399E-03   -0.20671E-04  1928   0.360E-02    0.527E-02
DAV:   4    -0.857459796544E+03    0.44755E-05   -0.71543E-05  1808   0.177E-02
  39 F= -.85745980E+03 E0= -.85745980E+03  d E =-.197959E-02  mag=     2.0000
 BRION: g(F)=  0.171E-02 g(S)=  0.000E+00 retain N=  2 mean eig= 0.97
 eig:   0.239  1.695
 bond charge predicted
       N       E                     dE             d eps       ncg     rms          rms(c)
DAV:   1    -0.857460371172E+03   -0.57015E-03   -0.36628E-01  1712   0.860E-01    0.139E-01
DAV:   2    -0.857460962436E+03   -0.59126E-03   -0.55717E-03  1816   0.112E-01    0.706E-02
DAV:   3    -0.857461069738E+03   -0.10730E-03   -0.12906E-04  1888   0.260E-02    0.387E-02
DAV:   4    -0.857461060311E+03    0.94268E-05   -0.45434E-05  1800   0.177E-02
  40 F= -.85746106E+03 E0= -.85746106E+03  d E =-.126377E-02  mag=     2.0000
 BRION: g(F)=  0.267E-02 g(S)=  0.000E+00 retain N=  2 mean eig= 0.41
 eig:   0.409  0.409
 bond charge predicted
       N       E                     dE             d eps       ncg     rms          rms(c)
DAV:   1    -0.857461598130E+03   -0.52839E-03   -0.66008E-01  1696   0.115E+00    0.183E-01
DAV:   2    -0.857462663638E+03   -0.10655E-02   -0.99592E-03  1848   0.147E-01    0.939E-02
DAV:   3    -0.857462873334E+03   -0.20970E-03   -0.20757E-04  1872   0.337E-02    0.517E-02
DAV:   4    -0.857462867067E+03    0.62677E-05   -0.78826E-05  1856   0.213E-02
  41 F= -.85746287E+03 E0= -.85746287E+03  d E =-.180676E-02  mag=     2.0000
 BRION: g(F)=  0.216E-02 g(S)=  0.000E+00 retain N=  2 mean eig= 0.76
 eig:   0.110  1.415
 bond charge predicted
       N       E                     dE             d eps       ncg     rms          rms(c)
DAV:   1    -0.857461643836E+03    0.12295E-02   -0.20555E-01  1696   0.661E-01    0.102E-01
DAV:   2    -0.857462016471E+03   -0.37264E-03   -0.34586E-03  1992   0.929E-02    0.609E-02
DAV:   3    -0.857462018883E+03   -0.24115E-05   -0.99533E-05  1880   0.272E-02
  42 F= -.85746202E+03 E0= -.85746202E+03  d E =0.848184E-03  mag=     2.0000
 BRION: g(F)=  0.168E-02 g(S)=  0.000E+00 retain N=  2 mean eig= 0.49
 eig:   0.236  0.746
 bond charge predicted
       N       E                     dE             d eps       ncg     rms          rms(c)
DAV:   1    -0.857462473917E+03   -0.45745E-03   -0.56561E-01  1696   0.108E+00    0.166E-01
DAV:   2    -0.857463474527E+03   -0.10006E-02   -0.89746E-03  1880   0.136E-01    0.837E-02
DAV:   3    -0.857463680680E+03   -0.20615E-03   -0.16291E-04  1832   0.277E-02    0.459E-02
DAV:   4    -0.857463673395E+03    0.72847E-05   -0.50328E-05  1728   0.152E-02
  43 F= -.85746367E+03 E0= -.85746367E+03  d E =-.165451E-02  mag=     2.0000
 BRION: g(F)=  0.133E-02 g(S)=  0.000E+00 retain N=  2 mean eig= 0.43
 eig:   0.338  0.520
 bond charge predicted
       N       E                     dE             d eps       ncg     rms          rms(c)
DAV:   1    -0.857464164970E+03   -0.48429E-03   -0.18845E-01  1752   0.629E-01    0.980E-02
DAV:   2    -0.857464491272E+03   -0.32630E-03   -0.29350E-03  1752   0.799E-02    0.486E-02
DAV:   3    -0.857464538671E+03   -0.47399E-04   -0.61315E-05  1664   0.172E-02    0.265E-02
DAV:   4    -0.857464534775E+03    0.38959E-05   -0.21182E-05  1536   0.123E-02
  44 F= -.85746453E+03 E0= -.85746453E+03  d E =-.861380E-03  mag=     2.0000
 BRION: g(F)=  0.149E-02 g(S)=  0.000E+00 retain N=  2 mean eig= 0.38
 eig:   0.384  0.384
 bond charge predicted
       N       E                     dE             d eps       ncg     rms          rms(c)
DAV:   1    -0.857463689455E+03    0.84922E-03   -0.15694E+00  1696   0.179E+00    0.283E-01
DAV:   2    -0.857466252630E+03   -0.25632E-02   -0.24422E-02  1840   0.223E-01    0.145E-01
DAV:   3    -0.857466933189E+03   -0.68056E-03   -0.46786E-04  1904   0.480E-02    0.802E-02
DAV:   4    -0.857466942324E+03   -0.91353E-05   -0.16670E-04  1888   0.269E-02    0.344E-02
DAV:   5    -0.857466977411E+03   -0.35087E-04   -0.52175E-05  1912   0.165E-02    0.223E-02
DAV:   6    -0.857466980714E+03   -0.33034E-05   -0.10894E-05  1512   0.112E-02
  45 F= -.85746698E+03 E0= -.85746698E+03  d E =-.244594E-02  mag=     2.0000
 BRION: g(F)=  0.122E-02 g(S)=  0.000E+00 retain N=  3 mean eig= 2.65
 eig:   3.541  3.541  0.853
 bond charge predicted
       N       E                     dE             d eps       ncg     rms          rms(c)
DAV:   1    -0.857423432003E+03    0.43545E-01   -0.23314E+01  1696   0.696E+00    0.108E+00
DAV:   2    -0.857463563174E+03   -0.40131E-01   -0.37769E-01  1856   0.867E-01    0.554E-01
DAV:   3    -0.857472843555E+03   -0.92804E-02   -0.70401E-03  1920   0.163E-01    0.308E-01
DAV:   4    -0.857472912954E+03   -0.69399E-04   -0.24101E-03  1968   0.105E-01    0.126E-01
DAV:   5    -0.857473723900E+03   -0.81095E-03   -0.82257E-04  2088   0.677E-02    0.687E-02
DAV:   6    -0.857473806974E+03   -0.83073E-04   -0.15976E-04  2208   0.311E-02    0.504E-02
DAV:   7    -0.857473823949E+03   -0.16976E-04   -0.41119E-05  1784   0.127E-02    0.382E-02
DAV:   8    -0.857473850658E+03   -0.26708E-04   -0.18380E-05  1568   0.126E-02    0.264E-02
DAV:   9    -0.857473878060E+03   -0.27403E-04   -0.20175E-05  1576   0.107E-02    0.772E-03
DAV:  10    -0.857473885016E+03   -0.69559E-05   -0.51187E-06  1504   0.476E-03
  46 F= -.85747389E+03 E0= -.85747388E+03  d E =-.690430E-02  mag=     2.0000
 BRION: g(F)=  0.159E-02 g(S)=  0.000E+00 retain N=  3 mean eig= 2.54
 eig:   0.674  3.476  3.476
 bond charge predicted
       N       E                     dE             d eps       ncg     rms          rms(c)
DAV:   1    -0.857466990264E+03    0.68878E-02   -0.25414E+00  1696   0.223E+00    0.346E-01
DAV:   2    -0.857470888360E+03   -0.38981E-02   -0.38170E-02  1928   0.278E-01    0.184E-01
DAV:   3    -0.857471958365E+03   -0.10700E-02   -0.71530E-04  1904   0.563E-02    0.105E-01
DAV:   4    -0.857471944477E+03    0.13887E-04   -0.31222E-04  1984   0.371E-02    0.466E-02
DAV:   5    -0.857471976209E+03   -0.31732E-04   -0.92298E-05  2024   0.248E-02    0.331E-02
DAV:   6    -0.857471978000E+03   -0.17908E-05   -0.28050E-05  1680   0.172E-02
  47 F= -.85747198E+03 E0= -.85747198E+03  d E =0.190702E-02  mag=     2.0000
 BRION: g(F)=  0.360E-02 g(S)=  0.000E+00 retain N=  4 mean eig= 2.19
 eig:   3.918  3.918  0.652  0.258
 bond charge predicted
       N       E                     dE             d eps       ncg     rms          rms(c)
DAV:   1    -0.857462712788E+03    0.92634E-02   -0.57658E+00  1696   0.351E+00    0.536E-01
DAV:   2    -0.857472270353E+03   -0.95576E-02   -0.94592E-02  1856   0.436E-01    0.280E-01
DAV:   3    -0.857474906911E+03   -0.26366E-02   -0.16775E-03  1928   0.818E-02    0.159E-01
DAV:   4    -0.857474909844E+03   -0.29334E-05   -0.66525E-04  1952   0.533E-02    0.628E-02
DAV:   5    -0.857475096222E+03   -0.18638E-03   -0.20432E-04  2080   0.316E-02    0.371E-02
DAV:   6    -0.857475108079E+03   -0.11858E-04   -0.40197E-05  1824   0.177E-02    0.251E-02
DAV:   7    -0.857475111037E+03   -0.29578E-05   -0.14539E-05  1528   0.683E-03
  48 F= -.85747511E+03 E0= -.85747511E+03  d E =-.313304E-02  mag=     2.0000
 BRION: g(F)=  0.495E-03 g(S)=  0.000E+00 retain N=  2 mean eig= 3.95
 eig:   0.390  7.502
 bond charge predicted
       N       E                     dE             d eps       ncg     rms          rms(c)
DAV:   1    -0.857475303407E+03   -0.19533E-03   -0.11003E-01  1728   0.536E-01    0.650E-02
DAV:   2    -0.857475529470E+03   -0.22606E-03   -0.21157E-03  1856   0.697E-02    0.331E-02
DAV:   3    -0.857475533983E+03   -0.45127E-05   -0.32330E-05  1480   0.125E-02
  49 F= -.85747553E+03 E0= -.85747553E+03  d E =-.422946E-03  mag=     2.0000
 BRION: g(F)=  0.572E-03 g(S)=  0.000E+00 retain N=  3 mean eig= 2.75
 eig:   7.544  0.354  0.354
 bond charge predicted
       N       E                     dE             d eps       ncg     rms          rms(c)
DAV:   1    -0.857475717963E+03   -0.18849E-03   -0.44820E-02  1760   0.343E-01    0.446E-02
DAV:   2    -0.857475809810E+03   -0.91847E-04   -0.84501E-04  1912   0.444E-02    0.237E-02
DAV:   3    -0.857475805802E+03    0.40084E-05   -0.14361E-05  1272   0.883E-03
  50 F= -.85747581E+03 E0= -.85747581E+03  d E =-.271819E-03  mag=     2.0000
 BRION: g(F)=  0.460E-03 g(S)=  0.000E+00 retain N=  2 mean eig= 4.06
 eig:   0.218  7.905
 bond charge predicted
       N       E                     dE             d eps       ncg     rms          rms(c)
DAV:   1    -0.857475998407E+03   -0.18860E-03   -0.11476E-01  1696   0.547E-01    0.653E-02
DAV:   2    -0.857476217460E+03   -0.21905E-03   -0.21039E-03  1808   0.694E-02    0.329E-02
DAV:   3    -0.857476222524E+03   -0.50637E-05   -0.31944E-05  1472   0.124E-02
  51 F= -.85747622E+03 E0= -.85747622E+03  d E =-.416722E-03  mag=     2.0000
 BRION: g(F)=  0.539E-03 g(S)=  0.000E+00 retain N=  2 mean eig= 0.30
 eig:   0.297  0.297
 bond charge predicted
       N       E                     dE             d eps       ncg     rms          rms(c)
DAV:   1    -0.857476286705E+03   -0.69245E-04   -0.42489E-03  1800   0.110E-01    0.152E-02
DAV:   2    -0.857476293457E+03   -0.67523E-05   -0.10806E-04  1984   0.173E-02    0.972E-03
DAV:   3    -0.857476291705E+03    0.17528E-05   -0.32939E-06  1416   0.481E-03
  52 F= -.85747629E+03 E0= -.85747629E+03  d E =-.691809E-04  mag=     2.0000
 BRION: g(F)=  0.407E-03 g(S)=  0.000E+00 retain N=  1 mean eig= 0.25
 eig:   0.254
 bond charge predicted
       N       E                     dE             d eps       ncg     rms          rms(c)
DAV:   1    -0.857476480985E+03   -0.18753E-03   -0.95120E-02  1712   0.496E-01    0.598E-02
DAV:   2    -0.857476673391E+03   -0.19241E-03   -0.17642E-03  1800   0.628E-02    0.299E-02
DAV:   3    -0.857476679623E+03   -0.62315E-05   -0.25323E-05  1416   0.103E-02
  53 F= -.85747668E+03 E0= -.85747668E+03  d E =-.387918E-03  mag=     2.0000
 BRION: g(F)=  0.397E-03 g(S)=  0.000E+00 retain N=  2 mean eig= 0.34
 eig:   0.344  0.344
 bond charge predicted
       N       E                     dE             d eps       ncg     rms          rms(c)
DAV:   1    -0.857476844129E+03   -0.17074E-03   -0.37757E-02  1728   0.314E-01    0.381E-02
DAV:   2    -0.857476914579E+03   -0.70450E-04   -0.65365E-04  1880   0.387E-02    0.196E-02
DAV:   3    -0.857476911865E+03    0.27136E-05   -0.99856E-06  1224   0.662E-03
  54 F= -.85747691E+03 E0= -.85747691E+03  d E =-.232243E-03  mag=     2.0000
 BRION: g(F)=  0.400E-03 g(S)=  0.000E+00 retain N=  2 mean eig= 1.95
 eig:   0.175  3.732
 bond charge predicted
       N       E                     dE             d eps       ncg     rms          rms(c)
DAV:   1    -0.857476445288E+03    0.46929E-03   -0.72020E-01  1696   0.137E+00    0.163E-01
DAV:   2    -0.857477775435E+03   -0.13301E-02   -0.13264E-02  1856   0.171E-01    0.811E-02
DAV:   3    -0.857477931198E+03   -0.15576E-03   -0.18649E-04  1848   0.268E-02    0.460E-02
DAV:   4    -0.857477921962E+03    0.92368E-05   -0.83311E-05  1848   0.211E-02
  55 F= -.85747792E+03 E0= -.85747792E+03  d E =-.101010E-02  mag=     2.0000
 BRION: g(F)=  0.308E-03 g(S)=  0.000E+00 retain N=  3 mean eig= 2.61
 eig:   3.037  3.037  1.745
 bond charge predicted
       N       E                     dE             d eps       ncg     rms          rms(c)
DAV:   1    -0.857449090412E+03    0.28841E-01   -0.15328E+01  1696   0.628E+00    0.767E-01
DAV:   2    -0.857477015618E+03   -0.27925E-01   -0.28833E-01  1912   0.793E-01    0.384E-01
DAV:   3    -0.857481638844E+03   -0.46232E-02   -0.39908E-03  1896   0.126E-01    0.217E-01
DAV:   4    -0.857481513734E+03    0.12511E-03   -0.16266E-03  2008   0.103E-01    0.100E-01
DAV:   5    -0.857481930554E+03   -0.41682E-03   -0.76539E-04  1936   0.531E-02    0.637E-02
DAV:   6    -0.857481926260E+03    0.42944E-05   -0.91962E-05  2160   0.270E-02
  56 F= -.85748193E+03 E0= -.85748193E+03  d E =-.400430E-02  mag=     2.0000
 BRION: g(F)=  0.584E-03 g(S)=  0.000E+00 retain N=  3 mean eig= 2.79
 eig:   0.413  3.981  3.981
 bond charge predicted
       N       E                     dE             d eps       ncg     rms          rms(c)
DAV:   1    -0.857481689633E+03    0.24092E-03   -0.54560E-02  1768   0.390E-01    0.456E-02
DAV:   2    -0.857481798156E+03   -0.10852E-03   -0.11051E-03  2008   0.540E-02    0.294E-02
DAV:   3    -0.857481791547E+03    0.66091E-05   -0.20032E-05  1544   0.106E-02
  57 F= -.85748179E+03 E0= -.85748179E+03  d E =0.134713E-03  mag=     2.0000
 BRION: g(F)=  0.570E-03 g(S)=  0.000E+00 retain N=  4 mean eig= 2.40
 eig:   4.577  4.577  0.231  0.231
 bond charge predicted
       N       E                     dE             d eps       ncg     rms          rms(c)
DAV:   1    -0.857476225615E+03    0.55725E-02   -0.33179E+00  1696   0.292E+00    0.361E-01
DAV:   2    -0.857482276735E+03   -0.60511E-02   -0.62560E-02  1888   0.370E-01    0.181E-01
DAV:   3    -0.857483371202E+03   -0.10945E-02   -0.86549E-04  1896   0.572E-02    0.101E-01
DAV:   4    -0.857483329552E+03    0.41650E-04   -0.37043E-04  1936   0.459E-02    0.433E-02
DAV:   5    -0.857483407067E+03   -0.77515E-04   -0.15165E-04  1984   0.238E-02    0.264E-02
DAV:   6    -0.857483407986E+03   -0.91913E-06   -0.17483E-05  1520   0.102E-02
  58 F= -.85748341E+03 E0= -.85748341E+03  d E =-.161644E-02  mag=     2.0000
 BRION: g(F)=  0.239E-03 g(S)=  0.000E+00 retain N=  2 mean eig= 0.82
 eig:   0.298  1.334
 bond charge predicted
       N       E                     dE             d eps       ncg     rms          rms(c)
DAV:   1    -0.857483413865E+03   -0.67982E-05   -0.10471E-02  1824   0.171E-01    0.246E-02
DAV:   2    -0.857483436452E+03   -0.22586E-04   -0.23688E-04  2040   0.264E-02    0.152E-02
DAV:   3    -0.857483435867E+03    0.58442E-06   -0.53396E-06  1504   0.677E-03
  59 F= -.85748344E+03 E0= -.85748344E+03  d E =-.278809E-04  mag=     2.0000
 BRION: g(F)=  0.254E-03 g(S)=  0.000E+00 retain N=  3 mean eig= 0.58
 eig:   1.188  0.280  0.280
 bond charge predicted
       N       E                     dE             d eps       ncg     rms          rms(c)
DAV:   1    -0.857483524132E+03   -0.87680E-04   -0.29123E-02  1728   0.275E-01    0.360E-02
DAV:   2    -0.857483592916E+03   -0.68784E-04   -0.58294E-04  1840   0.366E-02    0.192E-02
DAV:   3    -0.857483589809E+03    0.31069E-05   -0.89732E-06  1216   0.751E-03
  60 F= -.85748359E+03 E0= -.85748359E+03  d E =-.153942E-03  mag=     2.0000
 BRION: g(F)=  0.214E-03 g(S)=  0.000E+00 retain N=  3 mean eig= 2.72
 eig:   6.963  0.596  0.596
 bond charge predicted
       N       E                     dE             d eps       ncg     rms          rms(c)
DAV:   1    -0.857483676280E+03   -0.83364E-04   -0.34619E-02  1712   0.297E-01    0.392E-02
DAV:   2    -0.857483752130E+03   -0.75850E-04   -0.63047E-04  1800   0.371E-02    0.198E-02
DAV:   3    -0.857483749752E+03    0.23784E-05   -0.96507E-06  1216   0.714E-03
  61 F= -.85748375E+03 E0= -.85748375E+03  d E =-.159943E-03  mag=     2.0000
 BRION: g(F)=  0.199E-03 g(S)=  0.000E+00 retain N=  2 mean eig= 0.45
 eig:   0.446  0.446
 bond charge predicted
       N       E                     dE             d eps       ncg     rms          rms(c)
DAV:   1    -0.857483829766E+03   -0.77636E-04   -0.43448E-02  1712   0.333E-01    0.444E-02
DAV:   2    -0.857483926614E+03   -0.96848E-04   -0.80477E-04  1800   0.418E-02    0.224E-02
DAV:   3    -0.857483924349E+03    0.22649E-05   -0.12357E-05  1240   0.818E-03
  62 F= -.85748392E+03 E0= -.85748392E+03  d E =-.174598E-03  mag=     2.0000
 BRION: g(F)=  0.216E-03 g(S)=  0.000E+00 retain N=  3 mean eig= 0.36
 eig:   0.192  0.446  0.446
 bond charge predicted
       N       E                     dE             d eps       ncg     rms          rms(c)
DAV:   1    -0.857484006822E+03   -0.80207E-04   -0.30728E-02  1712   0.281E-01    0.372E-02
DAV:   2    -0.857484073795E+03   -0.66973E-04   -0.56253E-04  1816   0.353E-02    0.190E-02
DAV:   3    -0.857484071600E+03    0.21946E-05   -0.86854E-06  1200   0.690E-03
  63 F= -.85748407E+03 E0= -.85748407E+03  d E =-.147251E-03  mag=     2.0000
 BRION: g(F)=  0.198E-03 g(S)=  0.000E+00 retain N=  2 mean eig= 1.98
 eig:   0.124  3.839
 bond charge predicted
       N       E                     dE             d eps       ncg     rms          rms(c)
DAV:   1    -0.857484117997E+03   -0.44203E-04   -0.55304E-03  1728   0.121E-01    0.166E-02
DAV:   2    -0.857484129308E+03   -0.11311E-04   -0.10777E-04  2040   0.162E-02    0.910E-03
DAV:   3    -0.857484128342E+03    0.96639E-06   -0.21963E-06  1200   0.413E-03
  64 F= -.85748413E+03 E0= -.85748413E+03  d E =-.567416E-04  mag=     2.0000
 BRION: g(F)=  0.201E-03 g(S)=  0.000E+00 retain N=  2 mean eig= 0.21
 eig:   0.214  0.214
 bond charge predicted
       N       E                     dE             d eps       ncg     rms          rms(c)
DAV:   1    -0.857484204456E+03   -0.75148E-04   -0.25272E-02  1696   0.254E-01    0.336E-02
DAV:   2    -0.857484263450E+03   -0.58994E-04   -0.48443E-04  1768   0.327E-02    0.170E-02
DAV:   3    -0.857484261009E+03    0.24407E-05   -0.72529E-06  1192   0.617E-03
  65 F= -.85748426E+03 E0= -.85748426E+03  d E =-.132668E-03  mag=     2.0000
 BRION: g(F)=  0.182E-03 g(S)=  0.000E+00 retain N=  2 mean eig= 1.12
 eig:   0.241  2.002
 bond charge predicted
       N       E                     dE             d eps       ncg     rms          rms(c)
DAV:   1    -0.857484331269E+03   -0.67819E-04   -0.17972E-02  1728   0.214E-01    0.284E-02
DAV:   2    -0.857484371123E+03   -0.39854E-04   -0.32643E-04  1800   0.267E-02    0.144E-02
DAV:   3    -0.857484369080E+03    0.20422E-05   -0.49130E-06  1192   0.494E-03
  66 F= -.85748437E+03 E0= -.85748437E+03  d E =-.108071E-03  mag=     2.0000
 BRION: g(F)=  0.177E-03 g(S)=  0.000E+00 retain N=  2 mean eig= 0.33
 eig:   0.333  0.333
 bond charge predicted
       N       E                     dE             d eps       ncg     rms          rms(c)
DAV:   1    -0.857484439232E+03   -0.68110E-04   -0.16815E-02  1696   0.207E-01    0.272E-02
DAV:   2    -0.857484476938E+03   -0.37705E-04   -0.30765E-04  1784   0.259E-02    0.136E-02
DAV:   3    -0.857484474926E+03    0.20118E-05   -0.45687E-06  1184   0.481E-03
  67 F= -.85748447E+03 E0= -.85748447E+03  d E =-.105846E-03  mag=     2.0000
 BRION: g(F)=  0.172E-03 g(S)=  0.000E+00 retain N=  2 mean eig= 2.65
 eig:   0.190  5.120
 bond charge predicted
       N       E                     dE             d eps       ncg     rms          rms(c)
DAV:   1    -0.857484483248E+03   -0.63099E-05   -0.12004E-01  1696   0.554E-01    0.717E-02
DAV:   2    -0.857484733548E+03   -0.25030E-03   -0.22510E-03  1800   0.698E-02    0.356E-02
DAV:   3    -0.857484749403E+03   -0.15856E-04   -0.34988E-05  1536   0.121E-02    0.200E-02
DAV:   4    -0.857484748105E+03    0.12980E-05   -0.13998E-05  1320   0.887E-03
  68 F= -.85748475E+03 E0= -.85748475E+03  d E =-.273179E-03  mag=     2.0000
 BRION: g(F)=  0.171E-03 g(S)=  0.000E+00 retain N=  2 mean eig= 0.68
 eig:   0.684  0.684
 bond charge predicted
       N       E                     dE             d eps       ncg     rms          rms(c)
DAV:   1    -0.857484749081E+03    0.32235E-06   -0.18169E-03  1856   0.715E-02    0.979E-03
DAV:   2    -0.857484751505E+03   -0.24244E-05   -0.54241E-05  1784   0.126E-02
  69 F= -.85748475E+03 E0= -.85748475E+03  d E =-.340002E-05  mag=     2.0000
 BRION: g(F)=  0.206E-03 g(S)=  0.000E+00 retain N=  2 mean eig= 1.04
 eig:   0.448  1.627
 bond charge predicted
       N       E                     dE             d eps       ncg     rms          rms(c)
DAV:   1    -0.857484655277E+03    0.93804E-04   -0.18719E-01  1696   0.690E-01    0.901E-02
DAV:   2    -0.857485048791E+03   -0.39351E-03   -0.35786E-03  1816   0.879E-02    0.445E-02
DAV:   3    -0.857485082139E+03   -0.33348E-04   -0.54624E-05  1600   0.151E-02    0.247E-02
DAV:   4    -0.857485079528E+03    0.26116E-05   -0.20898E-05  1392   0.110E-02
  70 F= -.85748508E+03 E0= -.85748508E+03  d E =-.328022E-03  mag=     2.0000
 BRION: g(F)=  0.235E-03 g(S)=  0.000E+00 retain N=  2 mean eig= 0.21
 eig:   0.207  0.207
 bond charge predicted
       N       E                     dE             d eps       ncg     rms          rms(c)
DAV:   1    -0.857484890647E+03    0.19149E-03   -0.31158E-02  1696   0.286E-01    0.360E-02
DAV:   2    -0.857484963775E+03   -0.73128E-04   -0.64221E-04  1952   0.382E-02    0.201E-02
DAV:   3    -0.857484960622E+03    0.31534E-05   -0.91581E-06  1320   0.685E-03
  71 F= -.85748496E+03 E0= -.85748496E+03  d E =0.118906E-03  mag=     2.0000
 BRION: g(F)=  0.156E-03 g(S)=  0.000E+00 retain N=  1 mean eig= 0.28
 eig:   0.275
 bond charge predicted
       N       E                     dE             d eps       ncg     rms          rms(c)
DAV:   1    -0.857485004265E+03   -0.40490E-04   -0.53238E-02  1696   0.370E-01    0.481E-02
DAV:   2    -0.857485128157E+03   -0.12389E-03   -0.10731E-03  1816   0.488E-02    0.244E-02
DAV:   3    -0.857485130896E+03   -0.27385E-05   -0.16252E-05  1304   0.863E-03
  72 F= -.85748513E+03 E0= -.85748513E+03  d E =-.170274E-03  mag=     2.0000
 BRION: g(F)=  0.213E-03 g(S)=  0.000E+00 retain N=  2 mean eig= 0.22
 eig:   0.320  0.116
 bond charge predicted
       N       E                     dE             d eps       ncg     rms          rms(c)
DAV:   1    -0.857485172424E+03   -0.44266E-04   -0.34350E-03  1712   0.952E-02    0.136E-02
DAV:   2    -0.857485178104E+03   -0.56806E-05   -0.62595E-05  1904   0.123E-02
  73 F= -.85748518E+03 E0= -.85748518E+03  d E =-.472085E-04  mag=     2.0000
 BRION: g(F)=  0.158E-03 g(S)=  0.000E+00 retain N=  1 mean eig= 0.31
 eig:   0.310
 bond charge predicted
       N       E                     dE             d eps       ncg     rms          rms(c)
DAV:   1    -0.857485217017E+03   -0.44593E-04   -0.45199E-02  1696   0.340E-01    0.469E-02
DAV:   2    -0.857485317974E+03   -0.10096E-03   -0.88061E-04  1800   0.444E-02    0.242E-02
DAV:   3    -0.857485317676E+03    0.29823E-06   -0.15092E-05  1272   0.873E-03
  74 F= -.85748532E+03 E0= -.85748532E+03  d E =-.139571E-03  mag=     2.0000
 BRION: g(F)=  0.284E-03 g(S)=  0.000E+00 retain N=  2 mean eig= 0.26
 eig:   0.264  0.264
 bond charge predicted
       N       E                     dE             d eps       ncg     rms          rms(c)
DAV:   1    -0.857485365685E+03   -0.47711E-04   -0.35483E-03  1728   0.983E-02    0.132E-02
DAV:   2    -0.857485372569E+03   -0.68845E-05   -0.80647E-05  1928   0.141E-02
  75 F= -.85748537E+03 E0= -.85748537E+03  d E =-.548935E-04  mag=     2.0000
 BRION: g(F)=  0.145E-03 g(S)=  0.000E+00 retain N=  1 mean eig= 0.28
 eig:   0.277
 bond charge predicted
       N       E                     dE             d eps       ncg     rms          rms(c)
DAV:   1    -0.857485429705E+03   -0.64020E-04   -0.39393E-02  1696   0.315E-01    0.436E-02
DAV:   2    -0.857485519658E+03   -0.89953E-04   -0.74186E-04  1784   0.399E-02    0.220E-02
DAV:   3    -0.857485519434E+03    0.22406E-06   -0.12000E-05  1240   0.733E-03
  76 F= -.85748552E+03 E0= -.85748552E+03  d E =-.146864E-03  mag=     2.0000
 BRION: g(F)=  0.153E-03 g(S)=  0.000E+00 retain N=  2 mean eig= 0.26
 eig:   0.260  0.261
 bond charge predicted
       N       E                     dE             d eps       ncg     rms          rms(c)
DAV:   1    -0.857485532115E+03   -0.12457E-04   -0.25871E-04  1696   0.251E-02    0.604E-03
DAV:   2    -0.857485532299E+03   -0.18410E-06   -0.33246E-06  1320   0.321E-03
  77 F= -.85748553E+03 E0= -.85748553E+03  d E =-.128655E-04  mag=     2.0000
 BRION: g(F)=  0.144E-03 g(S)=  0.000E+00 retain N=  3 mean eig= 0.70
 eig:   0.227  0.943  0.943
 bond charge predicted
       N       E                     dE             d eps       ncg     rms          rms(c)
DAV:   1    -0.857485431562E+03    0.10055E-03   -0.16729E-01  1696   0.651E-01    0.855E-02
DAV:   2    -0.857485784796E+03   -0.35323E-03   -0.32214E-03  1816   0.836E-02    0.424E-02
DAV:   3    -0.857485812155E+03   -0.27359E-04   -0.50945E-05  1624   0.147E-02    0.239E-02
DAV:   4    -0.857485809972E+03    0.21826E-05   -0.21715E-05  1424   0.112E-02
  78 F= -.85748581E+03 E0= -.85748581E+03  d E =-.277673E-03  mag=     2.0000
 BRION: g(F)=  0.304E-03 g(S)=  0.000E+00 retain N=  4 mean eig= 1.55
 eig:   2.903  2.903  0.275  0.105
 bond charge predicted
       N       E                     dE             d eps       ncg     rms          rms(c)
DAV:   1    -0.857484577388E+03    0.12348E-02   -0.82158E-01  1696   0.145E+00    0.188E-01
DAV:   2    -0.857486143416E+03   -0.15660E-02   -0.15521E-02  1840   0.183E-01    0.920E-02
DAV:   3    -0.857486421561E+03   -0.27815E-03   -0.23967E-04  1864   0.303E-02    0.509E-02
DAV:   4    -0.857486419636E+03    0.19256E-05   -0.92021E-05  1856   0.222E-02
  79 F= -.85748642E+03 E0= -.85748642E+03  d E =-.609664E-03  mag=     2.0000
 BRION: g(F)=  0.373E-03 g(S)=  0.000E+00 retain N=  4 mean eig= 2.06
 eig:   3.548  3.548  0.566  0.566
 bond charge predicted
       N       E                     dE             d eps       ncg     rms          rms(c)
DAV:   1    -0.857482464831E+03    0.39567E-02   -0.21485E+00  1696   0.232E+00    0.308E-01
DAV:   2    -0.857486476425E+03   -0.40116E-02   -0.40218E-02  1832   0.292E-01    0.149E-01
DAV:   3    -0.857487317456E+03   -0.84103E-03   -0.61388E-04  1880   0.473E-02    0.822E-02
DAV:   4    -0.857487325245E+03   -0.77891E-05   -0.22076E-04  1904   0.342E-02    0.344E-02
DAV:   5    -0.857487374969E+03   -0.49723E-04   -0.92114E-05  1968   0.181E-02    0.208E-02
DAV:   6    -0.857487375507E+03   -0.53790E-06   -0.11300E-05  1464   0.775E-03
  80 F= -.85748738E+03 E0= -.85748738E+03  d E =-.955871E-03  mag=     2.0000
 BRION: g(F)=  0.419E-03 g(S)=  0.000E+00 retain N=  4 mean eig= 1.91
 eig:   4.406  1.294  1.294  0.630
 bond charge predicted
       N       E                     dE             d eps       ncg     rms          rms(c)
DAV:   1    -0.857468400570E+03    0.18974E-01   -0.74999E+00  1696   0.435E+00    0.569E-01
DAV:   2    -0.857482597129E+03   -0.14197E-01   -0.14327E-01  1920   0.550E-01    0.284E-01
DAV:   3    -0.857485276091E+03   -0.26790E-02   -0.20904E-03  1936   0.909E-02    0.157E-01
DAV:   4    -0.857485329687E+03   -0.53595E-04   -0.83538E-04  1992   0.715E-02    0.665E-02
DAV:   5    -0.857485541088E+03   -0.21140E-03   -0.33113E-04  1960   0.340E-02    0.447E-02
DAV:   6    -0.857485540092E+03    0.99595E-06   -0.36159E-05  1760   0.167E-02
  81 F= -.85748554E+03 E0= -.85748554E+03  d E =0.183541E-02  mag=     2.0000
 BRION: g(F)=  0.258E-03 g(S)=  0.000E+00 retain N=  2 mean eig= 1.70
 eig:   1.640  1.757
 bond charge predicted
       N       E                     dE             d eps       ncg     rms          rms(c)
DAV:   1    -0.857485467704E+03    0.73384E-04   -0.14417E-02  1840   0.201E-01    0.317E-02
DAV:   2    -0.857485487979E+03   -0.20275E-04   -0.41543E-04  2056   0.342E-02    0.220E-02
DAV:   3    -0.857485475787E+03    0.12192E-04   -0.16121E-05  1488   0.121E-02    0.123E-02
DAV:   4    -0.857485471108E+03    0.46794E-05   -0.13630E-05  1480   0.126E-02
  82 F= -.85748547E+03 E0= -.85748547E+03  d E =0.689841E-04  mag=     2.0000
 BRION: g(F)=  0.110E-02 g(S)=  0.000E+00 retain N=  3 mean eig= 1.23
 eig:   1.720  1.757  0.224
 bond charge predicted
       N       E                     dE             d eps       ncg     rms          rms(c)
DAV:   1    -0.857485571519E+03   -0.95731E-04   -0.82753E-03  1744   0.151E-01    0.182E-02
DAV:   2    -0.857485582339E+03   -0.10820E-04   -0.24843E-04  2088   0.257E-02    0.135E-02
DAV:   3    -0.857485576258E+03    0.60808E-05   -0.79064E-06  1416   0.736E-03
  83 F= -.85748558E+03 E0= -.85748558E+03  d E =-.105150E-03  mag=     2.0000
 BRION: g(F)=  0.185E-03 g(S)=  0.000E+00 retain N=  1 mean eig= 0.24
 eig:   0.237
 bond charge predicted
       N       E                     dE             d eps       ncg     rms          rms(c)
DAV:   1    -0.857485583496E+03   -0.11571E-05   -0.41266E-02  1696   0.332E-01    0.415E-02
DAV:   2    -0.857485673758E+03   -0.90262E-04   -0.88061E-04  1880   0.463E-02    0.228E-02
DAV:   3    -0.857485666709E+03    0.70493E-05   -0.15654E-05  1280   0.962E-03
  84 F= -.85748567E+03 E0= -.85748567E+03  d E =-.904507E-04  mag=     2.0000
 BRION: g(F)=  0.495E-03 g(S)=  0.000E+00 retain N=  2 mean eig= 0.13
 eig:   0.239  0.015
 bond charge predicted
       N       E                     dE             d eps       ncg     rms          rms(c)
DAV:   1    -0.857485737543E+03   -0.63786E-04   -0.63056E-03  1744   0.132E-01    0.157E-02
DAV:   2    -0.857485750186E+03   -0.12643E-04   -0.17608E-04  1992   0.206E-02    0.103E-02
DAV:   3    -0.857485747722E+03    0.24638E-05   -0.33848E-06  1224   0.440E-03
  85 F= -.85748575E+03 E0= -.85748575E+03  d E =-.810137E-04  mag=     2.0000
 BRION: g(F)=  0.147E-03 g(S)=  0.000E+00 retain N=  1 mean eig= 0.28
 eig:   0.276
 bond charge predicted
       N       E                     dE             d eps       ncg     rms          rms(c)
DAV:   1    -0.857485793690E+03   -0.43503E-04   -0.37860E-02  1696   0.313E-01    0.393E-02
DAV:   2    -0.857485877441E+03   -0.83751E-04   -0.72584E-04  1792   0.407E-02    0.200E-02
DAV:   3    -0.857485874265E+03    0.31754E-05   -0.11734E-05  1240   0.759E-03
  86 F= -.85748587E+03 E0= -.85748587E+03  d E =-.126543E-03  mag=     2.0000
 BRION: g(F)=  0.216E-03 g(S)=  0.000E+00 retain N=  2 mean eig= 0.16
 eig:   0.321  0.005
 bond charge predicted
       N       E                     dE             d eps       ncg     rms          rms(c)
DAV:   1    -0.857485913814E+03   -0.36374E-04   -0.31108E-03  1712   0.923E-02    0.122E-02
DAV:   2    -0.857485919215E+03   -0.54004E-05   -0.67978E-05  1880   0.131E-02
  87 F= -.85748592E+03 E0= -.85748592E+03  d E =-.449494E-04  mag=     2.0000
 BRION: g(F)=  0.130E-03 g(S)=  0.000E+00 retain N=  1 mean eig= 0.28
 eig:   0.284
 bond charge predicted
       N       E                     dE             d eps       ncg     rms          rms(c)
DAV:   1    -0.857485970893E+03   -0.57079E-04   -0.33565E-02  1696   0.291E-01    0.402E-02
DAV:   2    -0.857486048249E+03   -0.77356E-04   -0.63688E-04  1784   0.371E-02    0.204E-02
DAV:   3    -0.857486047131E+03    0.11185E-05   -0.10197E-05  1216   0.692E-03
  88 F= -.85748605E+03 E0= -.85748605E+03  d E =-.127916E-03  mag=     2.0000
 BRION: g(F)=  0.151E-03 g(S)=  0.000E+00 retain N=  2 mean eig= 0.26
 eig:   0.270  0.259
 bond charge predicted
       N       E                     dE             d eps       ncg     rms          rms(c)
DAV:   1    -0.857486077573E+03   -0.29323E-04   -0.21366E-03  1720   0.744E-02    0.105E-02
DAV:   2    -0.857486081150E+03   -0.35769E-05   -0.35979E-05  1648   0.933E-03
  89 F= -.85748608E+03 E0= -.85748608E+03  d E =-.340188E-04  mag=     2.0000
 BRION: g(F)=  0.125E-03 g(S)=  0.000E+00 retain N=  3 mean eig= 2.29
 eig:   6.591  0.289  0.003
 bond charge predicted
       N       E                     dE             d eps       ncg     rms          rms(c)
DAV:   1    -0.857486087303E+03   -0.97306E-05   -0.84886E-02  1696   0.463E-01    0.623E-02
DAV:   2    -0.857486268204E+03   -0.18090E-03   -0.16022E-03  1800   0.585E-02    0.311E-02
DAV:   3    -0.857486281690E+03   -0.13487E-04   -0.25110E-05  1424   0.102E-02    0.173E-02
DAV:   4    -0.857486280614E+03    0.10765E-05   -0.10551E-05  1288   0.748E-03
  90 F= -.85748628E+03 E0= -.85748628E+03  d E =-.199464E-03  mag=     2.0000
 BRION: g(F)=  0.136E-03 g(S)=  0.000E+00 retain N=  2 mean eig= 0.56
 eig:   0.560  0.560
 bond charge predicted
       N       E                     dE             d eps       ncg     rms          rms(c)
DAV:   1    -0.857486301153E+03   -0.19463E-04   -0.16433E-03  1824   0.675E-02    0.950E-03
DAV:   2    -0.857486304382E+03   -0.32291E-05   -0.37165E-05  1728   0.101E-02
  91 F= -.85748630E+03 E0= -.85748630E+03  d E =-.237685E-04  mag=     2.0000
 BRION: g(F)=  0.129E-03 g(S)=  0.000E+00 retain N=  2 mean eig= 3.43
 eig:   0.491  6.360
 bond charge predicted
       N       E                     dE             d eps       ncg     rms          rms(c)
DAV:   1    -0.857486342333E+03   -0.41180E-04   -0.84075E-03  1696   0.149E-01    0.196E-02
DAV:   2    -0.857486361997E+03   -0.19664E-04   -0.16877E-04  1792   0.199E-02    0.103E-02
DAV:   3    -0.857486360451E+03    0.15462E-05   -0.26802E-06  1160   0.371E-03
  92 F= -.85748636E+03 E0= -.85748636E+03  d E =-.560689E-04  mag=     2.0000
 BRION: g(F)=  0.155E-03 g(S)=  0.000E+00 retain N=  2 mean eig= 0.27
 eig:   0.295  0.238
 bond charge predicted
       N       E                     dE             d eps       ncg     rms          rms(c)
DAV:   1    -0.857486410975E+03   -0.48978E-04   -0.93709E-03  1696   0.155E-01    0.201E-02
DAV:   2    -0.857486431649E+03   -0.20674E-04   -0.17419E-04  1784   0.197E-02    0.100E-02
DAV:   3    -0.857486430647E+03    0.10023E-05   -0.25645E-06  1160   0.348E-03
  93 F= -.85748643E+03 E0= -.85748643E+03  d E =-.701953E-04  mag=     2.0000
 BRION: g(F)=  0.123E-03 g(S)=  0.000E+00 retain N=  1 mean eig= 0.30
 eig:   0.298
 bond charge predicted
       N       E                     dE             d eps       ncg     rms          rms(c)
DAV:   1    -0.857486480781E+03   -0.49132E-04   -0.36903E-02  1696   0.306E-01    0.391E-02
DAV:   2    -0.857486561960E+03   -0.81179E-04   -0.68021E-04  1768   0.384E-02    0.193E-02
DAV:   3    -0.857486560123E+03    0.18367E-05   -0.99428E-06  1232   0.654E-03
  94 F= -.85748656E+03 E0= -.85748656E+03  d E =-.129477E-03  mag=     2.0000
 BRION: g(F)=  0.133E-03 g(S)=  0.000E+00 retain N=  2 mean eig= 0.27
 eig:   0.274  0.274
 bond charge predicted
       N       E                     dE             d eps       ncg     rms          rms(c)
DAV:   1    -0.857486591708E+03   -0.29748E-04   -0.29123E-03  1712   0.875E-02    0.118E-02
DAV:   2    -0.857486596746E+03   -0.50374E-05   -0.49960E-05  1808   0.109E-02
  95 F= -.85748660E+03 E0= -.85748660E+03  d E =-.366224E-04  mag=     2.0000
 BRION: g(F)=  0.111E-03 g(S)=  0.000E+00 retain N=  1 mean eig= 0.34
 eig:   0.341
 bond charge predicted
       N       E                     dE             d eps       ncg     rms          rms(c)
DAV:   1    -0.857486643244E+03   -0.51536E-04   -0.29491E-02  1696   0.272E-01    0.378E-02
DAV:   2    -0.857486711849E+03   -0.68604E-04   -0.55149E-04  1768   0.342E-02    0.191E-02
DAV:   3    -0.857486710747E+03    0.11017E-05   -0.86123E-06  1216   0.619E-03
  96 F= -.85748671E+03 E0= -.85748671E+03  d E =-.114002E-03  mag=     2.0000
 BRION: g(F)=  0.126E-03 g(S)=  0.000E+00 retain N=  2 mean eig= 1.66
 eig:   0.313  3.009
 bond charge predicted
       N       E                     dE             d eps       ncg     rms          rms(c)
DAV:   1    -0.857486744665E+03   -0.32817E-04   -0.35619E-03  1696   0.944E-02    0.133E-02
DAV:   2    -0.857486751369E+03   -0.67034E-05   -0.57378E-05  1768   0.113E-02
  97 F= -.85748675E+03 E0= -.85748675E+03  d E =-.406216E-04  mag=     2.0000
 BRION: g(F)=  0.115E-03 g(S)=  0.000E+00 retain N=  2 mean eig= 0.90
 eig:   0.899  0.899
 bond charge predicted
       N       E                     dE             d eps       ncg     rms          rms(c)
DAV:   1    -0.857486790822E+03   -0.46157E-04   -0.19030E-02  1696   0.218E-01    0.324E-02
DAV:   2    -0.857486838251E+03   -0.47429E-04   -0.36906E-04  1776   0.282E-02    0.167E-02
DAV:   3    -0.857486836233E+03    0.20188E-05   -0.64504E-06  1192   0.554E-03
  98 F= -.85748684E+03 E0= -.85748684E+03  d E =-.848639E-04  mag=     2.0000
 BRION: g(F)=  0.148E-03 g(S)=  0.000E+00 retain N=  2 mean eig= 0.33
 eig:   0.428  0.225
 bond charge predicted
       N       E                     dE             d eps       ncg     rms          rms(c)
DAV:   1    -0.857486835162E+03    0.30895E-05   -0.81063E-02  1696   0.446E-01    0.627E-02
DAV:   2    -0.857487010302E+03   -0.17514E-03   -0.15084E-03  1776   0.558E-02    0.303E-02
DAV:   3    -0.857487024948E+03   -0.14647E-04   -0.24495E-05  1408   0.995E-03    0.169E-02
DAV:   4    -0.857487024699E+03    0.24973E-06   -0.89539E-06  1264   0.696E-03
  99 F= -.85748702E+03 E0= -.85748702E+03  d E =-.188466E-03  mag=     2.0000
 BRION: g(F)=  0.123E-03 g(S)=  0.000E+00 retain N=  2 mean eig= 1.02
 eig:   0.057  1.974
 bond charge predicted
       N       E                     dE             d eps       ncg     rms          rms(c)
DAV:   1    -0.857486755167E+03    0.26978E-03   -0.49146E-02  1696   0.344E-01    0.507E-02
DAV:   2    -0.857486880964E+03   -0.12580E-03   -0.97829E-04  1904   0.445E-02    0.258E-02
DAV:   3    -0.857486879260E+03    0.17039E-05   -0.15263E-05  1360   0.808E-03
 100 F= -.85748688E+03 E0= -.85748688E+03  d E =0.145439E-03  mag=     2.0000
 BRION: g(F)=  0.144E-03 g(S)=  0.000E+00 retain N=  2 mean eig= 0.19
 eig:   0.346  0.035
 bond charge predicted
       N       E                     dE             d eps       ncg     rms          rms(c)
DAV:   1    -0.857486833831E+03    0.47133E-04   -0.10535E-01  1696   0.511E-01    0.701E-02
DAV:   2    -0.857487071314E+03   -0.23748E-03   -0.20792E-03  1832   0.660E-02    0.348E-02
DAV:   3    -0.857487094171E+03   -0.22857E-04   -0.32316E-05  1512   0.115E-02    0.189E-02
DAV:   4    -0.857487091964E+03    0.22073E-05   -0.10646E-05  1328   0.761E-03
 101 F= -.85748709E+03 E0= -.85748709E+03  d E =-.212704E-03  mag=     2.0000
 BRION: g(F)=  0.118E-03 g(S)=  0.000E+00 retain N=  3 mean eig= 1.31
 eig:   3.180  0.123  0.628
 bond charge predicted
       N       E                     dE             d eps       ncg     rms          rms(c)
DAV:   1    -0.857487128113E+03   -0.33942E-04   -0.38487E-02  1696   0.309E-01    0.424E-02
DAV:   2    -0.857487214543E+03   -0.86430E-04   -0.71197E-04  1776   0.394E-02    0.200E-02
DAV:   3    -0.857487215425E+03   -0.88192E-06   -0.12412E-05  1224   0.736E-03
 102 F= -.85748722E+03 E0= -.85748722E+03  d E =-.123461E-03  mag=     2.0000
 BRION: g(F)=  0.122E-03 g(S)=  0.000E+00 retain N=  2 mean eig= 0.74
 eig:   0.509  0.976
 bond charge predicted
       N       E                     dE             d eps       ncg     rms          rms(c)
DAV:   1    -0.857487233791E+03   -0.19248E-04   -0.40275E-03  1712   0.105E-01    0.134E-02
DAV:   2    -0.857487240789E+03   -0.69985E-05   -0.88362E-05  2040   0.152E-02
 103 F= -.85748724E+03 E0= -.85748724E+03  d E =-.253642E-04  mag=     2.0000
 BRION: g(F)=  0.182E-03 g(S)=  0.000E+00 retain N=  3 mean eig= 0.58
 eig:   0.975  0.484  0.278
 bond charge predicted
       N       E                     dE             d eps       ncg     rms          rms(c)
DAV:   1    -0.857487268676E+03   -0.34886E-04   -0.29571E-03  1712   0.910E-02    0.125E-02
DAV:   2    -0.857487276684E+03   -0.80079E-05   -0.75080E-05  1864   0.134E-02
 104 F= -.85748728E+03 E0= -.85748728E+03  d E =-.358953E-04  mag=     2.0000
 BRION: g(F)=  0.106E-03 g(S)=  0.000E+00 retain N=  1 mean eig= 0.27
 eig:   0.274
 bond charge predicted
       N       E                     dE             d eps       ncg     rms          rms(c)
DAV:   1    -0.857487308940E+03   -0.40263E-04   -0.24879E-02  1696   0.250E-01    0.351E-02
DAV:   2    -0.857487366720E+03   -0.57780E-04   -0.48468E-04  1800   0.331E-02    0.184E-02
DAV:   3    -0.857487363703E+03    0.30166E-05   -0.86378E-06  1216   0.650E-03
 105 F= -.85748736E+03 E0= -.85748736E+03  d E =-.870186E-04  mag=     2.0000
 BRION: g(F)=  0.183E-03 g(S)=  0.000E+00 retain N=  2 mean eig= 0.26
 eig:   0.284  0.230
 bond charge predicted
       N       E                     dE             d eps       ncg     rms          rms(c)
DAV:   1    -0.857487394605E+03   -0.27885E-04   -0.24410E-03  1696   0.826E-02    0.105E-02
DAV:   2    -0.857487398892E+03   -0.42869E-05   -0.55236E-05  1800   0.119E-02
 106 F= -.85748740E+03 E0= -.85748740E+03  d E =-.351885E-04  mag=     2.0000
 BRION: g(F)=  0.998E-04 g(S)=  0.000E+00 retain N=  1 mean eig= 0.29
 eig:   0.289
 bond charge predicted
       N       E                     dE             d eps       ncg     rms          rms(c)
DAV:   1    -0.857487437627E+03   -0.43022E-04   -0.26500E-02  1696   0.259E-01    0.351E-02
DAV:   2    -0.857487498470E+03   -0.60844E-04   -0.49659E-04  1776   0.328E-02    0.178E-02
DAV:   3    -0.857487496146E+03    0.23241E-05   -0.79029E-06  1200   0.610E-03
 107 F= -.85748750E+03 E0= -.85748750E+03  d E =-.972545E-04  mag=     2.0000
 BRION: g(F)=  0.114E-03 g(S)=  0.000E+00 retain N=  2 mean eig= 0.22
 eig:   0.309  0.124
 bond charge predicted
       N       E                     dE             d eps       ncg     rms          rms(c)
DAV:   1    -0.857487515766E+03   -0.17296E-04   -0.11219E-03  1696   0.541E-02    0.808E-03
DAV:   2    -0.857487517517E+03   -0.17512E-05   -0.18796E-05  1496   0.688E-03
 108 F= -.85748752E+03 E0= -.85748752E+03  d E =-.213708E-04  mag=     2.0000
 BRION: g(F)=  0.953E-04 g(S)=  0.000E+00 retain N=  2 mean eig= 1.34
 eig:   0.073  2.616
 bond charge predicted
       N       E                     dE             d eps       ncg     rms          rms(c)
DAV:   1    -0.857487548763E+03   -0.32997E-04   -0.35781E-02  1696   0.301E-01    0.406E-02
DAV:   2    -0.857487631270E+03   -0.82507E-04   -0.67780E-04  1784   0.382E-02    0.203E-02
DAV:   3    -0.857487630433E+03    0.83710E-06   -0.10439E-05  1232   0.681E-03
 109 F= -.85748763E+03 E0= -.85748763E+03  d E =-.112916E-03  mag=     2.0000
 BRION: g(F)=  0.119E-03 g(S)=  0.000E+00 retain N=  2 mean eig= 0.23
 eig:   0.233  0.233
 bond charge predicted
       N       E                     dE             d eps       ncg     rms          rms(c)
DAV:   1    -0.857487646488E+03   -0.15218E-04   -0.80639E-04  1704   0.466E-02    0.757E-03
DAV:   2    -0.857487647539E+03   -0.10514E-05   -0.14377E-05  1408   0.622E-03
 110 F= -.85748765E+03 E0= -.85748765E+03  d E =-.171064E-04  mag=     2.0000
 BRION: g(F)=  0.977E-04 g(S)=  0.000E+00 retain N=  1 mean eig= 0.33
 eig:   0.326
 bond charge predicted
       N       E                     dE             d eps       ncg     rms          rms(c)
DAV:   1    -0.857487677860E+03   -0.31372E-04   -0.28057E-02  1696   0.270E-01    0.351E-02
DAV:   2    -0.857487742445E+03   -0.64585E-04   -0.54270E-04  1784   0.349E-02    0.179E-02
DAV:   3    -0.857487739701E+03    0.27437E-05   -0.82583E-06  1208   0.619E-03
 111 F= -.85748774E+03 E0= -.85748774E+03  d E =-.921617E-04  mag=     2.0000
 BRION: g(F)=  0.143E-03 g(S)=  0.000E+00 retain N=  2 mean eig= 0.29
 eig:   0.323  0.259
 bond charge predicted
       N       E                     dE             d eps       ncg     rms          rms(c)
DAV:   1    -0.857487767279E+03   -0.24834E-04   -0.21755E-03  1696   0.758E-02    0.104E-02
DAV:   2    -0.857487771344E+03   -0.40655E-05   -0.44270E-05  1720   0.104E-02
 112 F= -.85748777E+03 E0= -.85748777E+03  d E =-.316433E-04  mag=     2.0000
 BRION: g(F)=  0.910E-04 g(S)=  0.000E+00 retain N=  1 mean eig= 0.28
 eig:   0.278
 bond charge predicted
       N       E                     dE             d eps       ncg     rms          rms(c)
DAV:   1    -0.857487803338E+03   -0.36059E-04   -0.24618E-02  1696   0.251E-01    0.340E-02
DAV:   2    -0.857487860573E+03   -0.57235E-04   -0.47012E-04  1784   0.324E-02    0.174E-02
DAV:   3    -0.857487857933E+03    0.26396E-05   -0.75685E-06  1192   0.605E-03
 113 F= -.85748786E+03 E0= -.85748786E+03  d E =-.865889E-04  mag=     2.0000
 BRION: g(F)=  0.119E-03 g(S)=  0.000E+00 retain N=  2 mean eig= 0.25
 eig:   0.253  0.253
 bond charge predicted
       N       E                     dE             d eps       ncg     rms          rms(c)
DAV:   1    -0.857487880433E+03   -0.19861E-04   -0.14647E-03  1696   0.619E-02    0.885E-03
DAV:   2    -0.857487882947E+03   -0.25134E-05   -0.27316E-05  1552   0.833E-03
 114 F= -.85748788E+03 E0= -.85748788E+03  d E =-.250136E-04  mag=     2.0000
 BRION: g(F)=  0.865E-04 g(S)=  0.000E+00 retain N=  1 mean eig= 0.31
 eig:   0.307
 bond charge predicted
       N       E                     dE             d eps       ncg     rms          rms(c)
DAV:   1    -0.857487918751E+03   -0.38318E-04   -0.24689E-02  1696   0.250E-01    0.339E-02
DAV:   2    -0.857487977067E+03   -0.58316E-04   -0.46518E-04  1776   0.316E-02    0.170E-02
DAV:   3    -0.857487975048E+03    0.20190E-05   -0.70402E-06  1200   0.562E-03
 115 F= -.85748798E+03 E0= -.85748797E+03  d E =-.921012E-04  mag=     2.0000
 BRION: g(F)=  0.958E-04 g(S)=  0.000E+00 retain N=  2 mean eig= 0.22
 eig:   0.297  0.145
 bond charge predicted
       N       E                     dE             d eps       ncg     rms          rms(c)
DAV:   1    -0.857487985385E+03   -0.83179E-05   -0.30982E-04  1688   0.279E-02    0.549E-03
DAV:   2    -0.857487985667E+03   -0.28194E-06   -0.41584E-06  1320   0.337E-03
 116 F= -.85748799E+03 E0= -.85748799E+03  d E =-.106188E-04  mag=     2.0000
 BRION: g(F)=  0.863E-04 g(S)=  0.000E+00 retain N=  3 mean eig= 1.81
 eig:   0.324  2.549  2.549
 bond charge predicted
       N       E                     dE             d eps       ncg     rms          rms(c)
DAV:   1    -0.857487138340E+03    0.84704E-03   -0.54974E-01  1696   0.118E+00    0.155E-01
DAV:   2    -0.857488210861E+03   -0.10725E-02   -0.10430E-02  1856   0.149E-01    0.765E-02
DAV:   3    -0.857488387701E+03   -0.17684E-03   -0.15820E-04  1816   0.249E-02    0.426E-02
DAV:   4    -0.857488386225E+03    0.14760E-05   -0.65718E-05  1832   0.188E-02
 117 F= -.85748839E+03 E0= -.85748839E+03  d E =-.400558E-03  mag=     2.0000
 BRION: g(F)=  0.171E-03 g(S)=  0.000E+00 retain N=  4 mean eig= 2.39
 eig:   3.991  3.991  0.331  1.232
 bond charge predicted
       N       E                     dE             d eps       ncg     rms          rms(c)
DAV:   1    -0.857487464103E+03    0.92360E-03   -0.59324E-01  1696   0.122E+00    0.163E-01
DAV:   2    -0.857488590724E+03   -0.11266E-02   -0.11037E-02  1800   0.154E-01    0.779E-02
DAV:   3    -0.857488800179E+03   -0.20945E-03   -0.17907E-04  1784   0.260E-02    0.430E-02
DAV:   4    -0.857488803131E+03   -0.29526E-05   -0.61469E-05  1808   0.183E-02
 118 F= -.85748880E+03 E0= -.85748880E+03  d E =-.416906E-03  mag=     2.0000
 BRION: g(F)=  0.687E-04 g(S)=  0.000E+00 retain N=  3 mean eig= 1.79
 eig:   0.333  2.511  2.511
 bond charge predicted
       N       E                     dE             d eps       ncg     rms          rms(c)
DAV:   1    -0.857487593726E+03    0.12065E-02   -0.39011E-01  1696   0.100E+00    0.128E-01
DAV:   2    -0.857488374590E+03   -0.78086E-03   -0.76296E-03  1952   0.129E-01    0.661E-02
DAV:   3    -0.857488483627E+03   -0.10904E-03   -0.11155E-04  1840   0.211E-02    0.371E-02
DAV:   4    -0.857488473267E+03    0.10359E-04   -0.54984E-05  1888   0.166E-02    0.139E-02
DAV:   5    -0.857488475677E+03   -0.24091E-05   -0.15579E-05  1408   0.777E-03
 119 F= -.85748848E+03 E0= -.85748848E+03  d E =0.327455E-03  mag=     2.0000
 BRION: g(F)=  0.187E-03 g(S)=  0.000E+00 retain N=  2 mean eig= 0.50
 eig:   0.048  0.959
 bond charge predicted
       N       E                     dE             d eps       ncg     rms          rms(c)
DAV:   1    -0.857488099964E+03    0.37330E-03   -0.29946E-01  1696   0.869E-01    0.114E-01
DAV:   2    -0.857488689288E+03   -0.58932E-03   -0.56184E-03  1848   0.110E-01    0.570E-02
DAV:   3    -0.857488774577E+03   -0.85289E-04   -0.86482E-05  1736   0.183E-02    0.315E-02
DAV:   4    -0.857488769697E+03    0.48802E-05   -0.32338E-05  1656   0.133E-02
 120 F= -.85748877E+03 E0= -.85748877E+03  d E =-.294020E-03  mag=     2.0000
 BRION: g(F)=  0.764E-04 g(S)=  0.000E+00 retain N=  3 mean eig= 0.83
 eig:   0.024  1.236  1.236
 bond charge predicted
       N       E                     dE             d eps       ncg     rms          rms(c)
DAV:   1    -0.857488800064E+03   -0.25487E-04   -0.15682E-02  1712   0.193E-01    0.292E-02
DAV:   2    -0.857488837867E+03   -0.37803E-04   -0.28382E-04  1840   0.250E-02    0.137E-02
DAV:   3    -0.857488836849E+03    0.10180E-05   -0.62432E-06  1192   0.543E-03
 121 F= -.85748884E+03 E0= -.85748884E+03  d E =-.671527E-04  mag=     2.0000
 BRION: g(F)=  0.915E-04 g(S)=  0.000E+00 retain N=  2 mean eig= 1.27
 eig:   1.203  1.346
 bond charge predicted
       N       E                     dE             d eps       ncg     rms          rms(c)
DAV:   1    -0.857488605411E+03    0.23246E-03   -0.20122E-01  1696   0.705E-01    0.956E-02
DAV:   2    -0.857489015365E+03   -0.40995E-03   -0.37167E-03  1800   0.884E-02    0.469E-02
DAV:   3    -0.857489063455E+03   -0.48091E-04   -0.58546E-05  1616   0.151E-02    0.262E-02
DAV:   4    -0.857489062869E+03    0.58648E-06   -0.21789E-05  1416   0.111E-02
 122 F= -.85748906E+03 E0= -.85748906E+03  d E =-.226020E-03  mag=     2.0000
 BRION: g(F)=  0.847E-04 g(S)=  0.000E+00 retain N=  3 mean eig= 1.98
 eig:   2.378  2.378  1.177
 bond charge predicted
       N       E                     dE             d eps       ncg     rms          rms(c)
DAV:   1    -0.857488851954E+03    0.21150E-03   -0.18030E-01  1696   0.663E-01    0.918E-02
DAV:   2    -0.857489220915E+03   -0.36896E-03   -0.32981E-03  1784   0.833E-02    0.436E-02
DAV:   3    -0.857489268048E+03   -0.47133E-04   -0.55512E-05  1576   0.147E-02    0.237E-02
DAV:   4    -0.857489267918E+03    0.13051E-06   -0.15905E-05  1328   0.964E-03
 123 F= -.85748927E+03 E0= -.85748927E+03  d E =-.205049E-03  mag=     2.0000
 BRION: g(F)=  0.971E-04 g(S)=  0.000E+00 retain N=  4 mean eig= 2.84
 eig:   4.890  4.890  0.250  1.345
 bond charge predicted
       N       E                     dE             d eps       ncg     rms          rms(c)
DAV:   1    -0.857487355700E+03    0.19123E-02   -0.10219E+00  1696   0.158E+00    0.218E-01
DAV:   2    -0.857489276549E+03   -0.19208E-02   -0.18850E-02  1840   0.198E-01    0.105E-01
DAV:   3    -0.857489705515E+03   -0.42897E-03   -0.29709E-04  1856   0.334E-02    0.574E-02
DAV:   4    -0.857489713884E+03   -0.83694E-05   -0.10071E-04  1888   0.236E-02    0.240E-02
DAV:   5    -0.857489732387E+03   -0.18502E-04   -0.41242E-05  1808   0.121E-02    0.148E-02
DAV:   6    -0.857489732764E+03   -0.37716E-06   -0.45305E-06  1392   0.546E-03
 124 F= -.85748973E+03 E0= -.85748973E+03  d E =-.464846E-03  mag=     2.0000
 BRION: g(F)=  0.631E-04 g(S)=  0.000E+00 retain N=  3 mean eig= 4.50
 eig:   6.344  6.344  0.798
 bond charge predicted
       N       E                     dE             d eps       ncg     rms          rms(c)
DAV:   1    -0.857472624864E+03    0.17108E-01   -0.77279E+00  1696   0.435E+00    0.596E-01
DAV:   2    -0.857487103563E+03   -0.14479E-01   -0.14554E-01  1896   0.548E-01    0.294E-01
DAV:   3    -0.857490474133E+03   -0.33706E-02   -0.21595E-03  1864   0.914E-02    0.162E-01
DAV:   4    -0.857490556058E+03   -0.81925E-04   -0.78276E-04  2024   0.721E-02    0.724E-02
DAV:   5    -0.857490792263E+03   -0.23620E-03   -0.36007E-04  1928   0.356E-02    0.474E-02
DAV:   6    -0.857490790069E+03    0.21934E-05   -0.41904E-05  1912   0.191E-02
 125 F= -.85749079E+03 E0= -.85749079E+03  d E =-.105731E-02  mag=     2.0000
 BRION: g(F)=  0.111E-03 g(S)=  0.000E+00 retain N=  3 mean eig= 2.01
 eig:   0.700  2.672  2.672
 bond charge predicted
       N       E                     dE             d eps       ncg     rms          rms(c)
DAV:   1    -0.857480770543E+03    0.10022E-01   -0.40293E+00  1696   0.314E+00    0.429E-01
DAV:   2    -0.857488223168E+03   -0.74526E-02   -0.74751E-02  1912   0.393E-01    0.213E-01
DAV:   3    -0.857489887593E+03   -0.16644E-02   -0.11336E-03  1928   0.636E-02    0.115E-01
DAV:   4    -0.857489955068E+03   -0.67476E-04   -0.42365E-04  1944   0.472E-02    0.455E-02
DAV:   5    -0.857490060517E+03   -0.10545E-03   -0.15315E-04  1960   0.229E-02    0.313E-02
DAV:   6    -0.857490061030E+03   -0.51355E-06   -0.15838E-05  1440   0.993E-03
 126 F= -.85749006E+03 E0= -.85749006E+03  d E =0.729039E-03  mag=     2.0000
 BRION: g(F)=  0.676E-04 g(S)=  0.000E+00 retain N=  4 mean eig= 3.46
 eig:   0.804  2.603  2.603  7.823
 bond charge predicted
       N       E                     dE             d eps       ncg     rms          rms(c)
DAV:   1    -0.857489988395E+03    0.72121E-04   -0.90751E-02  1696   0.471E-01    0.649E-02
DAV:   2    -0.857490172340E+03   -0.18394E-03   -0.16675E-03  1968   0.595E-02    0.326E-02
DAV:   3    -0.857490192372E+03   -0.20032E-04   -0.28211E-05  1584   0.104E-02    0.175E-02
DAV:   4    -0.857490190586E+03    0.17863E-05   -0.80889E-06  1424   0.694E-03
 127 F= -.85749019E+03 E0= -.85749019E+03  d E =-.129556E-03  mag=     2.0000
 BRION: g(F)=  0.501E-04 g(S)=  0.000E+00 retain N=  2 mean eig= 0.95
 eig:   1.639  0.260
 bond charge predicted
       N       E                     dE             d eps       ncg     rms          rms(c)
DAV:   1    -0.857489799606E+03    0.39277E-03   -0.25729E-01  1696   0.795E-01    0.108E-01
DAV:   2    -0.857490316964E+03   -0.51736E-03   -0.47479E-03  1816   0.999E-02    0.522E-02
DAV:   3    -0.857490391432E+03   -0.74469E-04   -0.76377E-05  1656   0.171E-02    0.285E-02
DAV:   4    -0.857490390820E+03    0.61231E-06   -0.25211E-05  1536   0.117E-02
 128 F= -.85749039E+03 E0= -.85749039E+03  d E =-.200234E-03  mag=     2.0000
 BRION: g(F)=  0.400E-04 g(S)=  0.000E+00 retain N=  3 mean eig= 2.05
 eig:   2.926  2.926  0.295
 bond charge predicted
       N       E                     dE             d eps       ncg     rms          rms(c)
DAV:   1    -0.857490289124E+03    0.10231E-03   -0.92885E-02  1696   0.474E-01    0.667E-02
DAV:   2    -0.857490481873E+03   -0.19275E-03   -0.16858E-03  1768   0.597E-02    0.315E-02
DAV:   3    -0.857490503304E+03   -0.21431E-04   -0.30070E-05  1480   0.110E-02    0.173E-02
DAV:   4    -0.857490503344E+03   -0.39166E-07   -0.87071E-06  1280   0.712E-03
 129 F= -.85749050E+03 E0= -.85749050E+03  d E =-.112524E-03  mag=     2.0000
 BRION: g(F)=  0.727E-04 g(S)=  0.000E+00 retain N=  4 mean eig= 2.92
 eig:   4.841  4.841  1.696  0.296
 bond charge predicted
       N       E                     dE             d eps       ncg     rms          rms(c)
DAV:   1    -0.857482536592E+03    0.79667E-02   -0.37028E+00  1696   0.301E+00    0.413E-01
DAV:   2    -0.857489400229E+03   -0.68636E-02   -0.68793E-02  1880   0.378E-01    0.202E-01
DAV:   3    -0.857491012871E+03   -0.16126E-02   -0.10408E-03  1880   0.625E-02    0.111E-01
DAV:   4    -0.857491057280E+03   -0.44408E-04   -0.37101E-04  1992   0.474E-02    0.476E-02
DAV:   5    -0.857491152833E+03   -0.95554E-04   -0.15903E-04  1960   0.236E-02    0.305E-02
DAV:   6    -0.857491152062E+03    0.77144E-06   -0.16825E-05  1552   0.116E-02
 130 F= -.85749115E+03 E0= -.85749115E+03  d E =-.648718E-03  mag=     2.0000
 BRION: g(F)=  0.405E-04 g(S)=  0.000E+00 retain N=  1 mean eig= 4.12
 eig:   4.121
 bond charge predicted
       N       E                     dE             d eps       ncg     rms          rms(c)
DAV:   1    -0.857490707831E+03    0.44500E-03   -0.14381E-01  1696   0.589E-01    0.827E-02
DAV:   2    -0.857491010366E+03   -0.30254E-03   -0.26536E-03  1928   0.746E-02    0.422E-02
DAV:   3    -0.857491035128E+03   -0.24762E-04   -0.45211E-05  1672   0.134E-02    0.227E-02
DAV:   4    -0.857491033721E+03    0.14073E-05   -0.16204E-05  1480   0.921E-03
 131 F= -.85749103E+03 E0= -.85749103E+03  d E =0.118341E-03  mag=     2.0000
 BRION: g(F)=  0.136E-03 g(S)=  0.000E+00 retain N=  2 mean eig= 2.16
 eig:   3.860  0.452
 bond charge predicted
       N       E                     dE             d eps       ncg     rms          rms(c)
DAV:   1    -0.857491046306E+03   -0.11178E-04   -0.20056E-02  1728   0.227E-01    0.305E-02
DAV:   2    -0.857491096020E+03   -0.49714E-04   -0.41057E-04  1904   0.301E-02    0.168E-02
DAV:   3    -0.857491092903E+03    0.31173E-05   -0.61264E-06  1232   0.529E-03
 132 F= -.85749109E+03 E0= -.85749109E+03  d E =-.591817E-04  mag=     2.0000
 BRION: g(F)=  0.356E-04 g(S)=  0.000E+00 retain N=  2 mean eig= 4.05
 eig:   0.377  7.719
 bond charge predicted
       N       E                     dE             d eps       ncg     rms          rms(c)
DAV:   1    -0.857491075967E+03    0.20053E-04   -0.34637E-02  1696   0.292E-01    0.394E-02
DAV:   2    -0.857491152073E+03   -0.76106E-04   -0.61787E-04  1776   0.360E-02    0.189E-02
DAV:   3    -0.857491151409E+03    0.66457E-06   -0.96548E-06  1232   0.633E-03
 133 F= -.85749115E+03 E0= -.85749115E+03  d E =-.585060E-04  mag=     2.0000
 BRION: g(F)=  0.303E-04 g(S)=  0.000E+00 retain N=  2 mean eig= 0.53
 eig:   0.352  0.698
 bond charge predicted
       N       E                     dE             d eps       ncg     rms          rms(c)
DAV:   1    -0.857491128039E+03    0.24034E-04   -0.39067E-02  1696   0.314E-01    0.416E-02
DAV:   2    -0.857491212857E+03   -0.84818E-04   -0.70527E-04  1776   0.390E-02    0.205E-02
DAV:   3    -0.857491212079E+03    0.77780E-06   -0.10835E-05  1248   0.679E-03
 134 F= -.85749121E+03 E0= -.85749121E+03  d E =-.606706E-04  mag=     2.0000
 BRION: g(F)=  0.389E-04 g(S)=  0.000E+00 retain N=  3 mean eig= 0.44
 eig:   0.739  0.380  0.213
 bond charge predicted
       N       E                     dE             d eps       ncg     rms          rms(c)
DAV:   1    -0.857491219286E+03   -0.64286E-05   -0.63251E-04  1728   0.410E-02    0.709E-03
DAV:   2    -0.857491220125E+03   -0.83921E-06   -0.11393E-05  1432   0.568E-03
 135 F= -.85749122E+03 E0= -.85749122E+03  d E =-.804559E-05  mag=     2.0000
 BRION: g(F)=  0.265E-04 g(S)=  0.000E+00 retain N=  2 mean eig= 3.74
 eig:   0.073  7.405
 bond charge predicted
       N       E                     dE             d eps       ncg     rms          rms(c)
DAV:   1    -0.857491210367E+03    0.89186E-05   -0.24116E-02  1696   0.250E-01    0.330E-02
DAV:   2    -0.857491267364E+03   -0.56997E-04   -0.46918E-04  1792   0.322E-02    0.166E-02
DAV:   3    -0.857491265284E+03    0.20797E-05   -0.70018E-06  1192   0.568E-03
 136 F= -.85749127E+03 E0= -.85749127E+03  d E =-.451597E-04  mag=     2.0000
 BRION: g(F)=  0.549E-04 g(S)=  0.000E+00 retain N=  2 mean eig= 0.26
 eig:   0.261  0.261
 bond charge predicted
       N       E                     dE             d eps       ncg     rms          rms(c)
DAV:   1    -0.857491249123E+03    0.18241E-04   -0.23162E-03  1688   0.782E-02    0.110E-02
DAV:   2    -0.857491256499E+03   -0.73761E-05   -0.59339E-05  1776   0.119E-02
 137 F= -.85749126E+03 E0= -.85749126E+03  d E =0.878568E-05  mag=     2.0000
 BRION: g(F)=  0.257E-04 g(S)=  0.000E+00 retain N=  1 mean eig= 0.25
 eig:   0.246
 reached required accuracy - stopping structural energy minimisation
--------------------------------------------------------
>>>  Job finished at Thu Jun 23 16:41:15 EDT 2022
