>>>  VASP 5.4.4 with BEEF-vdw and vtst
--------------------------------------------------------
>>>  Job information
     SLURM_JOBID=8314667
     SLURM_JOB_NODELIST=cpn-q09-36-01
     SLURM_NNODES=1
     SLURMTMPDIR=/scratch/8314667
     working directory = /projects/academic/ericwalk/ruthbell/Ads_Ag-SSZ13/Blank_Ag-SSZ-13/PBE
--------------------------------------------------------
>>>  Module information
--------------------------------------------------------
>>>  Running Configuration
NPROCS=16
--------------------------------------------------------
>>>  Job started at Tue May  3 17:02:26 EDT 2022
--------------------------------------------------------
 running on   16 total cores
 distrk:  each k-point on   16 cores,    1 groups
 distr:  one band on    4 cores,    4 groups
 using from now: INCAR     
 vasp.5.4.4.18Apr17-6-g9f103f2a35 (build Dec 31 2018 11:41:54) complex          
  
 POSCAR found type information on POSCAR  O  Si Al Ag
 POSCAR found :  4 types and     111 ions
 scaLAPACK will be used
 LDA part: xc-table for Pade appr. of Perdew
 POSCAR found type information on POSCAR  O  Si Al Ag
 POSCAR found :  4 types and     111 ions
 POSCAR, INCAR and KPOINTS ok, starting setup
 FFT: planning ...
 WAVECAR not read
 entering main loop
       N       E                     dE             d eps       ncg     rms          rms(c)
DAV:   1     0.430425578696E+04    0.43043E+04   -0.25265E+05  1768   0.102E+03
DAV:   2    -0.410975039551E+03   -0.47152E+04   -0.45378E+04  2040   0.296E+02
DAV:   3    -0.925144329281E+03   -0.51417E+03   -0.51067E+03  2032   0.103E+02
DAV:   4    -0.935539502465E+03   -0.10395E+02   -0.10355E+02  2096   0.160E+01
DAV:   5    -0.935813661259E+03   -0.27416E+00   -0.27383E+00  2096   0.239E+00    0.861E+01
DAV:   6    -0.592767561930E+03    0.34305E+03   -0.70123E+02  1948   0.388E+01    0.276E+01
DAV:   7    -0.680929994468E+03   -0.88162E+02   -0.81785E+01  2004   0.123E+01    0.190E+01
DAV:   8    -0.749535662341E+03   -0.68606E+02   -0.30456E+01  1960   0.806E+00    0.107E+01
DAV:   9    -0.822427046829E+03   -0.72891E+02   -0.54826E+01  1980   0.886E+00    0.475E+00
DAV:  10    -0.834934901155E+03   -0.12508E+02   -0.72174E+00  2024   0.351E+00    0.341E+00
DAV:  11    -0.850883135041E+03   -0.15948E+02   -0.10756E+01  1868   0.400E+00    0.162E+00
DAV:  12    -0.852760573291E+03   -0.18774E+01   -0.95550E-01  1912   0.132E+00    0.889E-01
DAV:  13    -0.853778958796E+03   -0.10184E+01   -0.44189E-01  1880   0.915E-01    0.430E-01
DAV:  14    -0.853902656614E+03   -0.12370E+00   -0.49871E-02  1912   0.333E-01    0.270E-01
DAV:  15    -0.853918334133E+03   -0.15678E-01   -0.12866E-02  2008   0.236E-01    0.147E-01
DAV:  16    -0.853924914853E+03   -0.65807E-02   -0.47251E-03  1984   0.135E-01    0.112E-01
DAV:  17    -0.853929992602E+03   -0.50777E-02   -0.20169E-03  2072   0.107E-01    0.358E-02
DAV:  18    -0.853934516806E+03   -0.45242E-02   -0.13939E-03  1952   0.779E-02    0.473E-02
DAV:  19    -0.853935190076E+03   -0.67327E-03   -0.38973E-04  1968   0.447E-02    0.297E-02
DAV:  20    -0.853935590929E+03   -0.40085E-03   -0.30517E-04  1976   0.388E-02    0.134E-02
DAV:  21    -0.853936028035E+03   -0.43711E-03   -0.14658E-04  1896   0.278E-02    0.136E-02
DAV:  22    -0.853936158129E+03   -0.13009E-03   -0.67191E-05  1744   0.191E-02    0.519E-03
DAV:  23    -0.853936247278E+03   -0.89149E-04   -0.34926E-05  1680   0.128E-02    0.288E-03
DAV:  24    -0.853936300227E+03   -0.52949E-04   -0.16798E-05  1592   0.850E-03    0.243E-03
DAV:  25    -0.853936324842E+03   -0.24615E-04   -0.50768E-06  1424   0.413E-03    0.186E-03
DAV:  26    -0.853936338750E+03   -0.13908E-04   -0.26212E-06  1384   0.267E-03    0.133E-03
DAV:  27    -0.853936343611E+03   -0.48613E-05   -0.11872E-06  1416   0.154E-03
   1 F= -.85393634E+03 E0= -.85393634E+03  d E =-.853936E+03  mag=     0.0001
 BRION: g(F)=  0.220E+00 g(S)=  0.000E+00
 bond charge predicted
       N       E                     dE             d eps       ncg     rms          rms(c)
DAV:   1    -0.853797244272E+03    0.13909E+00   -0.25931E+01  1680   0.844E+00    0.922E-01
DAV:   2    -0.853828185997E+03   -0.30942E-01   -0.75758E-01  2072   0.150E+00    0.829E-01
DAV:   3    -0.853808650579E+03    0.19535E-01   -0.33397E-02  2088   0.441E-01    0.578E-01
DAV:   4    -0.853786991442E+03    0.21659E-01   -0.24667E-02  2272   0.546E-01    0.222E-01
DAV:   5    -0.853782128673E+03    0.48628E-02   -0.17479E-02  2128   0.414E-01    0.186E-01
DAV:   6    -0.853781342520E+03    0.78615E-03   -0.18047E-02  2112   0.320E-01    0.174E-01
DAV:   7    -0.853779602877E+03    0.17396E-02   -0.28574E-03  2272   0.190E-01    0.902E-02
DAV:   8    -0.853779146396E+03    0.45648E-03   -0.12031E-03  2192   0.138E-01    0.302E-02
DAV:   9    -0.853779186738E+03   -0.40342E-04   -0.51442E-04  2208   0.898E-02    0.351E-02
DAV:  10    -0.853779312459E+03   -0.12572E-03   -0.49343E-04  1936   0.433E-02    0.203E-02
DAV:  11    -0.853779381887E+03   -0.69428E-04   -0.53250E-05  1968   0.164E-02    0.141E-02
DAV:  12    -0.853779432384E+03   -0.50497E-04   -0.99425E-06  1376   0.102E-02    0.129E-02
DAV:  13    -0.853779445677E+03   -0.13293E-04   -0.20443E-05  1712   0.119E-02    0.425E-03
DAV:  14    -0.853779451829E+03   -0.61519E-05   -0.74205E-06  1344   0.606E-03
   2 F= -.85377945E+03 E0= -.85377945E+03  d E =0.156892E+00  mag=    -0.0000
 BRION: g(F)=  0.182E+01 g(S)=  0.000E+00 retain N=  1 mean eig= 0.24
 eig:   0.237
 bond charge predicted
       N       E                     dE             d eps       ncg     rms          rms(c)
DAV:   1    -0.853993857947E+03   -0.21441E+00   -0.18192E+01  1680   0.720E+00    0.823E-01
DAV:   2    -0.854014993033E+03   -0.21135E-01   -0.55703E-01  2080   0.126E+00    0.640E-01
DAV:   3    -0.853998900445E+03    0.16093E-01   -0.24558E-02  2096   0.428E-01    0.404E-01
DAV:   4    -0.853986736067E+03    0.12164E-01   -0.12444E-02  2208   0.426E-01    0.136E-01
DAV:   5    -0.853984335198E+03    0.24009E-02   -0.11277E-02  2160   0.321E-01    0.104E-01
DAV:   6    -0.853983457834E+03    0.87736E-03   -0.68724E-03  2160   0.237E-01    0.119E-01
DAV:   7    -0.853982652995E+03    0.80484E-03   -0.15344E-03  2184   0.143E-01    0.693E-02
DAV:   8    -0.853982360125E+03    0.29287E-03   -0.70071E-04  2064   0.120E-01    0.198E-02
DAV:   9    -0.853982431006E+03   -0.70881E-04   -0.64218E-04  1992   0.606E-02    0.334E-02
DAV:  10    -0.853982443953E+03   -0.12947E-04   -0.93082E-05  2040   0.165E-02    0.262E-02
DAV:  11    -0.853982479018E+03   -0.35065E-04   -0.86859E-05  2064   0.205E-02    0.173E-02
DAV:  12    -0.853982504144E+03   -0.25126E-04   -0.39725E-05  1832   0.131E-02    0.202E-02
DAV:  13    -0.853982503915E+03    0.22940E-06   -0.27643E-05  1768   0.132E-02
   3 F= -.85398250E+03 E0= -.85398250E+03  d E =-.203052E+00  mag=     0.0000
 BRION: g(F)=  0.642E-01 g(S)=  0.000E+00 retain N=  1 mean eig= 0.22
 eig:   0.216
 bond charge predicted
       N       E                     dE             d eps       ncg     rms          rms(c)
DAV:   1    -0.853974003052E+03    0.85011E-02   -0.64744E+00  1680   0.382E+00    0.385E-01
DAV:   2    -0.853982435539E+03   -0.84325E-02   -0.13903E-01  2064   0.616E-01    0.350E-01
DAV:   3    -0.853980179548E+03    0.22560E-02   -0.41207E-03  2096   0.144E-01    0.252E-01
DAV:   4    -0.853977901419E+03    0.22781E-02   -0.63003E-03  2000   0.188E-01    0.994E-02
DAV:   5    -0.853977615910E+03    0.28551E-03   -0.20460E-03  2160   0.113E-01    0.856E-02
DAV:   6    -0.853977472548E+03    0.14336E-03   -0.18892E-03  2064   0.103E-01    0.462E-02
DAV:   7    -0.853977380056E+03    0.92492E-04   -0.24561E-04  2096   0.445E-02    0.299E-02
DAV:   8    -0.853977313374E+03    0.66682E-04   -0.67987E-05  2080   0.413E-02    0.106E-02
DAV:   9    -0.853977302828E+03    0.10546E-04   -0.69016E-05  2064   0.371E-02    0.132E-02
DAV:  10    -0.853977324396E+03   -0.21568E-04   -0.85918E-05  1856   0.211E-02    0.722E-03
DAV:  11    -0.853977322517E+03    0.18792E-05   -0.39650E-05  1600   0.133E-02
   4 F= -.85397732E+03 E0= -.85397732E+03  d E =0.518140E-02  mag=    -0.0000
 BRION: g(F)=  0.174E+00 g(S)=  0.000E+00 retain N=  2 mean eig= 0.06
 eig:   0.115  0.001
 bond charge predicted
       N       E                     dE             d eps       ncg     rms          rms(c)
DAV:   1    -0.854000692398E+03   -0.23368E-01   -0.22337E+00  1680   0.250E+00    0.273E-01
DAV:   2    -0.854004138683E+03   -0.34463E-02   -0.68926E-02  2072   0.433E-01    0.239E-01
DAV:   3    -0.854002779518E+03    0.13592E-02   -0.22256E-03  2080   0.106E-01    0.168E-01
DAV:   4    -0.854001608896E+03    0.11706E-02   -0.24712E-03  2016   0.125E-01    0.615E-02
DAV:   5    -0.854001463237E+03    0.14566E-03   -0.95810E-04  2144   0.754E-02    0.459E-02
DAV:   6    -0.854001415465E+03    0.47773E-04   -0.64819E-04  2040   0.602E-02    0.294E-02
DAV:   7    -0.854001376220E+03    0.39245E-04   -0.88124E-05  1960   0.302E-02    0.190E-02
DAV:   8    -0.854001368068E+03    0.81513E-05   -0.58008E-05  1680   0.306E-02
   5 F= -.85400137E+03 E0= -.85400137E+03  d E =-.240456E-01  mag=     0.0000
 BRION: g(F)=  0.223E-01 g(S)=  0.000E+00 retain N=  1 mean eig= 0.25
 eig:   0.250
 bond charge predicted
       N       E                     dE             d eps       ncg     rms          rms(c)
DAV:   1    -0.854002196780E+03   -0.82056E-03   -0.42379E+00  1680   0.290E+00    0.247E-01
DAV:   2    -0.854005754645E+03   -0.35579E-02   -0.60102E-02  2080   0.403E-01    0.185E-01
DAV:   3    -0.854004864239E+03    0.89041E-03   -0.17140E-03  2048   0.892E-02    0.126E-01
DAV:   4    -0.854004260603E+03    0.60364E-03   -0.14426E-03  1984   0.860E-02    0.448E-02
DAV:   5    -0.854004167143E+03    0.93459E-04   -0.45967E-04  2048   0.537E-02    0.296E-02
DAV:   6    -0.854004162138E+03    0.50052E-05   -0.30803E-04  1920   0.421E-02    0.212E-02
DAV:   7    -0.854004150342E+03    0.11796E-04   -0.87441E-05  1744   0.249E-02    0.136E-02
DAV:   8    -0.854004165094E+03   -0.14752E-04   -0.89638E-05  1640   0.247E-02    0.519E-03
DAV:   9    -0.854004165820E+03   -0.72517E-06   -0.10536E-04  1672   0.239E-02    0.664E-03
DAV:  10    -0.854004144039E+03    0.21780E-04   -0.48176E-05  1616   0.150E-02    0.456E-03
DAV:  11    -0.854004143948E+03    0.91306E-07   -0.74922E-06  1488   0.645E-03
   6 F= -.85400414E+03 E0= -.85400414E+03  d E =-.277588E-02  mag=    -0.0000
 BRION: g(F)=  0.637E-01 g(S)=  0.000E+00 retain N=  2 mean eig= 0.21
 eig:   0.209  0.209
 bond charge predicted
       N       E                     dE             d eps       ncg     rms          rms(c)
DAV:   1    -0.854013092903E+03   -0.89489E-02   -0.89350E-01  1680   0.153E+00    0.160E-01
DAV:   2    -0.854014184802E+03   -0.10919E-02   -0.22607E-02  2080   0.251E-01    0.130E-01
DAV:   3    -0.854013719199E+03    0.46560E-03   -0.76658E-04  2080   0.640E-02    0.892E-02
DAV:   4    -0.854013360096E+03    0.35910E-03   -0.72526E-04  2128   0.712E-02    0.320E-02
DAV:   5    -0.854013314195E+03    0.45901E-04   -0.27978E-04  2256   0.426E-02    0.232E-02
DAV:   6    -0.854013295145E+03    0.19050E-04   -0.19341E-04  2128   0.357E-02    0.183E-02
DAV:   7    -0.854013281499E+03    0.13646E-04   -0.28315E-05  1600   0.167E-02    0.128E-02
DAV:   8    -0.854013271824E+03    0.96750E-05   -0.20873E-05  1552   0.184E-02
   7 F= -.85401327E+03 E0= -.85401327E+03  d E =-.912788E-02  mag=    -0.0000
 BRION: g(F)=  0.103E-01 g(S)=  0.000E+00 retain N=  1 mean eig= 0.25
 eig:   0.247
 bond charge predicted
       N       E                     dE             d eps       ncg     rms          rms(c)
DAV:   1    -0.854017240544E+03   -0.39590E-02   -0.28409E+00  1680   0.208E+00    0.158E-01
DAV:   2    -0.854018999172E+03   -0.17586E-02   -0.25174E-02  2064   0.253E-01    0.989E-02
DAV:   3    -0.854018745471E+03    0.25370E-03   -0.60913E-04  2080   0.570E-02    0.643E-02
DAV:   4    -0.854018560319E+03    0.18515E-03   -0.35702E-04  2080   0.577E-02    0.224E-02
DAV:   5    -0.854018542740E+03    0.17579E-04   -0.20631E-04  2160   0.356E-02    0.189E-02
DAV:   6    -0.854018535690E+03    0.70503E-05   -0.78414E-05  2000   0.185E-02
   8 F= -.85401854E+03 E0= -.85401854E+03  d E =-.526387E-02  mag=     0.0000
 BRION: g(F)=  0.237E-01 g(S)=  0.000E+00 retain N=  2 mean eig= 0.23
 eig:   0.233  0.233
 bond charge predicted
       N       E                     dE             d eps       ncg     rms          rms(c)
DAV:   1    -0.854022253806E+03   -0.37111E-02   -0.39637E-01  1696   0.967E-01    0.946E-02
DAV:   2    -0.854022622477E+03   -0.36867E-03   -0.75623E-03  2088   0.145E-01    0.703E-02
DAV:   3    -0.854022457064E+03    0.16541E-03   -0.26835E-04  2080   0.419E-02    0.444E-02
DAV:   4    -0.854022353437E+03    0.10363E-03   -0.15286E-04  2024   0.392E-02    0.140E-02
DAV:   5    -0.854022343021E+03    0.10416E-04   -0.11172E-04  2056   0.268E-02    0.104E-02
DAV:   6    -0.854022338442E+03    0.45790E-05   -0.39821E-05  1904   0.152E-02
   9 F= -.85402234E+03 E0= -.85402234E+03  d E =-.380275E-02  mag=     0.0000
 BRION: g(F)=  0.715E-02 g(S)=  0.000E+00 retain N=  1 mean eig= 0.23
 eig:   0.232
 bond charge predicted
       N       E                     dE             d eps       ncg     rms          rms(c)
DAV:   1    -0.854026966742E+03   -0.46237E-02   -0.23188E+00  1680   0.174E+00    0.114E-01
DAV:   2    -0.854028131749E+03   -0.11650E-02   -0.15036E-02  2048   0.185E-01    0.594E-02
DAV:   3    -0.854028053306E+03    0.78443E-04   -0.28416E-04  2072   0.326E-02    0.383E-02
DAV:   4    -0.854027997214E+03    0.56092E-04   -0.12835E-04  2280   0.310E-02    0.124E-02
DAV:   5    -0.854027993526E+03    0.36879E-05   -0.48671E-05  1968   0.163E-02
  10 F= -.85402799E+03 E0= -.85402799E+03  d E =-.565508E-02  mag=     0.0000
 BRION: g(F)=  0.977E-02 g(S)=  0.000E+00 retain N=  2 mean eig= 0.19
 eig:   0.188  0.188
 bond charge predicted
       N       E                     dE             d eps       ncg     rms          rms(c)
DAV:   1    -0.854030055994E+03   -0.20588E-02   -0.26647E-01  1680   0.689E-01    0.587E-02
DAV:   2    -0.854030227826E+03   -0.17183E-03   -0.30682E-03  2064   0.919E-02    0.393E-02
DAV:   3    -0.854030178356E+03    0.49470E-04   -0.10106E-04  2096   0.231E-02    0.253E-02
DAV:   4    -0.854030150829E+03    0.27527E-04   -0.54922E-05  1968   0.190E-02    0.827E-03
DAV:   5    -0.854030148139E+03    0.26899E-05   -0.22180E-05  1616   0.126E-02
  11 F= -.85403015E+03 E0= -.85403015E+03  d E =-.215461E-02  mag=     0.0000
 BRION: g(F)=  0.606E-02 g(S)=  0.000E+00 retain N=  1 mean eig= 0.23
 eig:   0.227
 bond charge predicted
       N       E                     dE             d eps       ncg     rms          rms(c)
DAV:   1    -0.854034348280E+03   -0.41975E-02   -0.17739E+00  1680   0.145E+00    0.901E-02
DAV:   2    -0.854035146556E+03   -0.79828E-03   -0.97384E-03  2000   0.143E-01    0.417E-02
DAV:   3    -0.854035118869E+03    0.27686E-04   -0.16445E-04  2072   0.236E-02    0.268E-02
DAV:   4    -0.854035097718E+03    0.21151E-04   -0.67754E-05  2192   0.218E-02    0.970E-03
DAV:   5    -0.854035096176E+03    0.15424E-05   -0.18910E-05  1480   0.109E-02
  12 F= -.85403510E+03 E0= -.85403510E+03  d E =-.494804E-02  mag=    -0.0000
 BRION: g(F)=  0.553E-02 g(S)=  0.000E+00 retain N=  2 mean eig= 0.20
 eig:   0.052  0.356
 bond charge predicted
       N       E                     dE             d eps       ncg     rms          rms(c)
DAV:   1    -0.854037682438E+03   -0.25847E-02   -0.68511E-01  1680   0.938E-01    0.614E-02
DAV:   2    -0.854038006534E+03   -0.32410E-03   -0.42405E-03  2048   0.100E-01    0.336E-02
DAV:   3    -0.854037979274E+03    0.27260E-04   -0.84553E-05  2064   0.198E-02    0.215E-02
DAV:   4    -0.854037959458E+03    0.19816E-04   -0.41722E-05  1952   0.214E-02    0.705E-03
DAV:   5    -0.854037959054E+03    0.40391E-06   -0.23361E-05  1520   0.118E-02
  13 F= -.85403796E+03 E0= -.85403796E+03  d E =-.286288E-02  mag=     0.0000
 BRION: g(F)=  0.569E-02 g(S)=  0.000E+00 retain N=  2 mean eig= 0.37
 eig:   0.046  0.702
 bond charge predicted
       N       E                     dE             d eps       ncg     rms          rms(c)
DAV:   1    -0.854041619178E+03   -0.36597E-02   -0.17435E+00  1680   0.146E+00    0.916E-02
DAV:   2    -0.854042380176E+03   -0.76100E-03   -0.97884E-03  2048   0.149E-01    0.440E-02
DAV:   3    -0.854042335054E+03    0.45122E-04   -0.19518E-04  2096   0.274E-02    0.285E-02
DAV:   4    -0.854042302979E+03    0.32075E-04   -0.64032E-05  2056   0.223E-02    0.972E-03
DAV:   5    -0.854042300547E+03    0.24324E-05   -0.29017E-05  1800   0.140E-02
  14 F= -.85404230E+03 E0= -.85404230E+03  d E =-.434149E-02  mag=     0.0000
 BRION: g(F)=  0.633E-02 g(S)=  0.000E+00 retain N=  2 mean eig= 0.13
 eig:   0.053  0.209
 bond charge predicted
       N       E                     dE             d eps       ncg     rms          rms(c)
DAV:   1    -0.854042771287E+03   -0.46831E-03   -0.57234E-02  1696   0.394E-01    0.432E-02
DAV:   2    -0.854042831290E+03   -0.60004E-04   -0.14882E-03  2064   0.645E-02    0.320E-02
DAV:   3    -0.854042796150E+03    0.35140E-04   -0.65157E-05  2080   0.192E-02    0.202E-02
DAV:   4    -0.854042778411E+03    0.17739E-04   -0.29277E-05  1744   0.145E-02    0.679E-03
DAV:   5    -0.854042775692E+03    0.27188E-05   -0.15146E-05  1488   0.110E-02
  15 F= -.85404278E+03 E0= -.85404278E+03  d E =-.475145E-03  mag=    -0.0000
 BRION: g(F)=  0.492E-02 g(S)=  0.000E+00 retain N=  2 mean eig= 1.30
 eig:   0.201  2.400
 bond charge predicted
       N       E                     dE             d eps       ncg     rms          rms(c)
DAV:   1    -0.854045756123E+03   -0.29777E-02   -0.11196E+00  1680   0.116E+00    0.706E-02
DAV:   2    -0.854046235696E+03   -0.47957E-03   -0.60178E-03  2032   0.115E-01    0.332E-02
DAV:   3    -0.854046212628E+03    0.23068E-04   -0.10898E-04  2080   0.205E-02    0.210E-02
DAV:   4    -0.854046196022E+03    0.16606E-04   -0.36129E-05  1888   0.179E-02    0.681E-03
DAV:   5    -0.854046195149E+03    0.87223E-06   -0.17155E-05  1376   0.105E-02
  16 F= -.85404620E+03 E0= -.85404620E+03  d E =-.341946E-02  mag=    -0.0000
 BRION: g(F)=  0.436E-02 g(S)=  0.000E+00 retain N=  2 mean eig= 0.46
 eig:   0.200  0.719
 bond charge predicted
       N       E                     dE             d eps       ncg     rms          rms(c)
DAV:   1    -0.854047963156E+03   -0.17671E-02   -0.38272E-01  1680   0.709E-01    0.461E-02
DAV:   2    -0.854048137032E+03   -0.17388E-03   -0.23387E-03  2048   0.754E-02    0.246E-02
DAV:   3    -0.854048119907E+03    0.17124E-04   -0.52000E-05  2016   0.156E-02    0.155E-02
DAV:   4    -0.854048108653E+03    0.11255E-04   -0.17890E-05  1568   0.143E-02    0.496E-03
DAV:   5    -0.854048108353E+03    0.29980E-06   -0.15967E-05  1408   0.946E-03
  17 F= -.85404811E+03 E0= -.85404811E+03  d E =-.191320E-02  mag=    -0.0000
 BRION: g(F)=  0.384E-02 g(S)=  0.000E+00 retain N=  2 mean eig= 0.73
 eig:   0.065  1.386
 bond charge predicted
       N       E                     dE             d eps       ncg     rms          rms(c)
DAV:   1    -0.854051180177E+03   -0.30715E-02   -0.16521E+00  1680   0.140E+00    0.832E-02
DAV:   2    -0.854051882100E+03   -0.70192E-03   -0.85870E-03  2032   0.135E-01    0.375E-02
DAV:   3    -0.854051856800E+03    0.25300E-04   -0.13818E-04  2064   0.214E-02    0.237E-02
DAV:   4    -0.854051838602E+03    0.18198E-04   -0.51478E-05  2064   0.197E-02    0.749E-03
DAV:   5    -0.854051839140E+03   -0.53796E-06   -0.18637E-05  1504   0.953E-03
  18 F= -.85405184E+03 E0= -.85405184E+03  d E =-.373079E-02  mag=    -0.0000
 BRION: g(F)=  0.411E-02 g(S)=  0.000E+00 retain N=  2 mean eig= 0.30
 eig:   0.303  0.303
 bond charge predicted
       N       E                     dE             d eps       ncg     rms          rms(c)
DAV:   1    -0.854052256664E+03   -0.41806E-03   -0.54659E-02  1696   0.364E-01    0.370E-02
DAV:   2    -0.854052302851E+03   -0.46188E-04   -0.11186E-03  2064   0.562E-02    0.266E-02
DAV:   3    -0.854052276407E+03    0.26444E-04   -0.47251E-05  2032   0.168E-02    0.168E-02
DAV:   4    -0.854052261740E+03    0.14667E-04   -0.19733E-05  1632   0.131E-02    0.567E-03
DAV:   5    -0.854052259448E+03    0.22925E-05   -0.13688E-05  1472   0.105E-02
  19 F= -.85405226E+03 E0= -.85405226E+03  d E =-.420308E-03  mag=    -0.0000
 BRION: g(F)=  0.411E-02 g(S)=  0.000E+00 retain N=  2 mean eig= 0.99
 eig:   0.186  1.791
 bond charge predicted
       N       E                     dE             d eps       ncg     rms          rms(c)
DAV:   1    -0.854054593511E+03   -0.23318E-02   -0.93587E-01  1680   0.108E+00    0.662E-02
DAV:   2    -0.854055007735E+03   -0.41422E-03   -0.52583E-03  2048   0.109E-01    0.331E-02
DAV:   3    -0.854054981646E+03    0.26089E-04   -0.98193E-05  2064   0.199E-02    0.207E-02
DAV:   4    -0.854054963850E+03    0.17797E-04   -0.36942E-05  1936   0.180E-02    0.630E-03
DAV:   5    -0.854054963312E+03    0.53749E-06   -0.17179E-05  1400   0.998E-03
  20 F= -.85405496E+03 E0= -.85405496E+03  d E =-.270386E-02  mag=    -0.0000
 BRION: g(F)=  0.367E-02 g(S)=  0.000E+00 retain N=  2 mean eig= 0.56
 eig:   0.195  0.930
 bond charge predicted
       N       E                     dE             d eps       ncg     rms          rms(c)
DAV:   1    -0.854055963768E+03   -0.99992E-03   -0.14526E-01  1680   0.467E-01    0.342E-02
DAV:   2    -0.854056037338E+03   -0.73570E-04   -0.11442E-03  2080   0.552E-02    0.210E-02
DAV:   3    -0.854056022492E+03    0.14847E-04   -0.30847E-05  1792   0.134E-02    0.129E-02
DAV:   4    -0.854056013978E+03    0.85141E-05   -0.14369E-05  1520   0.126E-02
  21 F= -.85405601E+03 E0= -.85405601E+03  d E =-.105067E-02  mag=     0.0000
 BRION: g(F)=  0.285E-02 g(S)=  0.000E+00 retain N=  2 mean eig= 0.85
 eig:   0.148  1.559
 bond charge predicted
       N       E                     dE             d eps       ncg     rms          rms(c)
DAV:   1    -0.854058352731E+03   -0.23302E-02   -0.11624E+00  1680   0.116E+00    0.689E-02
DAV:   2    -0.854058844873E+03   -0.49214E-03   -0.59387E-03  2032   0.111E-01    0.303E-02
DAV:   3    -0.854058830081E+03    0.14792E-04   -0.92255E-05  2032   0.166E-02    0.191E-02
DAV:   4    -0.854058818817E+03    0.11264E-04   -0.30794E-05  1840   0.141E-02    0.595E-03
DAV:   5    -0.854058819124E+03   -0.30739E-06   -0.10622E-05  1344   0.739E-03
  22 F= -.85405882E+03 E0= -.85405882E+03  d E =-.280515E-02  mag=     0.0000
 BRION: g(F)=  0.285E-02 g(S)=  0.000E+00 retain N=  2 mean eig= 0.31
 eig:   0.306  0.306
 bond charge predicted
       N       E                     dE             d eps       ncg     rms          rms(c)
DAV:   1    -0.854059465710E+03   -0.64689E-03   -0.97326E-02  1696   0.412E-01    0.331E-02
DAV:   2    -0.854059524876E+03   -0.59166E-04   -0.10117E-03  2064   0.526E-02    0.216E-02
DAV:   3    -0.854059508594E+03    0.16282E-04   -0.31184E-05  1920   0.136E-02    0.135E-02
DAV:   4    -0.854059498985E+03    0.96091E-05   -0.13901E-05  1472   0.124E-02
  23 F= -.85405950E+03 E0= -.85405950E+03  d E =-.679861E-03  mag=     0.0000
 BRION: g(F)=  0.297E-02 g(S)=  0.000E+00 retain N=  2 mean eig= 0.75
 eig:   0.100  1.403
 bond charge predicted
       N       E                     dE             d eps       ncg     rms          rms(c)
DAV:   1    -0.854061804285E+03   -0.22957E-02   -0.13953E+00  1680   0.129E+00    0.777E-02
DAV:   2    -0.854062410449E+03   -0.60616E-03   -0.74424E-03  2032   0.126E-01    0.365E-02
DAV:   3    -0.854062383642E+03    0.26807E-04   -0.11715E-04  2064   0.205E-02    0.227E-02
DAV:   4    -0.854062364282E+03    0.19361E-04   -0.46623E-05  1984   0.192E-02    0.668E-03
DAV:   5    -0.854062364994E+03   -0.71276E-06   -0.20673E-05  1568   0.987E-03
  24 F= -.85406236E+03 E0= -.85406236E+03  d E =-.286601E-02  mag=    -0.0000
 BRION: g(F)=  0.320E-02 g(S)=  0.000E+00 retain N=  2 mean eig= 0.31
 eig:   0.164  0.464
 bond charge predicted
       N       E                     dE             d eps       ncg     rms          rms(c)
DAV:   1    -0.854062157633E+03    0.20665E-03   -0.34273E-02  1696   0.281E-01    0.278E-02
DAV:   2    -0.854062183057E+03   -0.25424E-04   -0.63257E-04  2064   0.426E-02    0.202E-02
DAV:   3    -0.854062167546E+03    0.15511E-04   -0.26504E-05  1808   0.128E-02    0.124E-02
DAV:   4    -0.854062159829E+03    0.77165E-05   -0.13871E-05  1536   0.105E-02
  25 F= -.85406216E+03 E0= -.85406216E+03  d E =0.205165E-03  mag=    -0.0000
 BRION: g(F)=  0.234E-02 g(S)=  0.000E+00 retain N=  2 mean eig= 1.26
 eig:   0.207  2.305
 bond charge predicted
       N       E                     dE             d eps       ncg     rms          rms(c)
DAV:   1    -0.854064112075E+03   -0.19445E-02   -0.10160E+00  1680   0.110E+00    0.642E-02
DAV:   2    -0.854064559291E+03   -0.44722E-03   -0.53151E-03  2016   0.105E-01    0.292E-02
DAV:   3    -0.854064546159E+03    0.13132E-04   -0.73315E-05  1936   0.145E-02    0.180E-02
DAV:   4    -0.854064537219E+03    0.89398E-05   -0.32101E-05  1864   0.138E-02
  26 F= -.85406454E+03 E0= -.85406454E+03  d E =-.237739E-02  mag=     0.0000
 BRION: g(F)=  0.215E-02 g(S)=  0.000E+00 retain N=  2 mean eig= 0.28
 eig:   0.115  0.439
 bond charge predicted
       N       E                     dE             d eps       ncg     rms          rms(c)
DAV:   1    -0.854065350069E+03   -0.80391E-03   -0.17707E-01  1712   0.496E-01    0.357E-02
DAV:   2    -0.854065431366E+03   -0.81297E-04   -0.12418E-03  2048   0.564E-02    0.206E-02
DAV:   3    -0.854065416873E+03    0.14492E-04   -0.34819E-05  1968   0.138E-02    0.130E-02
DAV:   4    -0.854065407666E+03    0.92077E-05   -0.12573E-05  1504   0.116E-02
  27 F= -.85406541E+03 E0= -.85406541E+03  d E =-.870447E-03  mag=    -0.0000
 BRION: g(F)=  0.256E-02 g(S)=  0.000E+00 retain N=  2 mean eig= 1.08
 eig:   0.198  1.968
 bond charge predicted
       N       E                     dE             d eps       ncg     rms          rms(c)
DAV:   1    -0.854067874230E+03   -0.24574E-02   -0.28929E+00  1680   0.185E+00    0.108E-01
DAV:   2    -0.854069120034E+03   -0.12458E-02   -0.14926E-02  2016   0.176E-01    0.486E-02
DAV:   3    -0.854069080404E+03    0.39629E-04   -0.21872E-04  2048   0.261E-02    0.300E-02
DAV:   4    -0.854069052205E+03    0.28200E-04   -0.83997E-05  2032   0.226E-02    0.873E-03
DAV:   5    -0.854069054217E+03   -0.20121E-05   -0.26416E-05  1680   0.106E-02
  28 F= -.85406905E+03 E0= -.85406905E+03  d E =-.364655E-02  mag=     0.0000
 BRION: g(F)=  0.278E-02 g(S)=  0.000E+00 retain N=  2 mean eig= 0.18
 eig:   0.180  0.180
 bond charge predicted
       N       E                     dE             d eps       ncg     rms          rms(c)
DAV:   1    -0.854066738982E+03    0.23132E-02   -0.93551E-01  1680   0.108E+00    0.644E-02
DAV:   2    -0.854067147011E+03   -0.40803E-03   -0.52014E-03  2032   0.109E-01    0.335E-02
DAV:   3    -0.854067122492E+03    0.24519E-04   -0.95156E-05  2064   0.192E-02    0.207E-02
DAV:   4    -0.854067105913E+03    0.16579E-04   -0.36438E-05  1872   0.161E-02    0.592E-03
DAV:   5    -0.854067105515E+03    0.39751E-06   -0.15072E-05  1504   0.916E-03
  29 F= -.85406711E+03 E0= -.85406711E+03  d E =0.194870E-02  mag=    -0.0000
 BRION: g(F)=  0.210E-02 g(S)=  0.000E+00 retain N=  2 mean eig= 1.07
 eig:   0.351  1.794
 bond charge predicted
       N       E                     dE             d eps       ncg     rms          rms(c)
DAV:   1    -0.854069247045E+03   -0.21411E-02   -0.19200E+00  1680   0.152E+00    0.876E-02
DAV:   2    -0.854070103237E+03   -0.85619E-03   -0.10079E-02  2016   0.143E-01    0.397E-02
DAV:   3    -0.854070081477E+03    0.21760E-04   -0.13481E-04  2032   0.190E-02    0.243E-02
DAV:   4    -0.854070065685E+03    0.15792E-04   -0.54337E-05  1936   0.164E-02    0.644E-03
DAV:   5    -0.854070066772E+03   -0.10872E-05   -0.13575E-05  1360   0.698E-03
  30 F= -.85407007E+03 E0= -.85407007E+03  d E =-.296126E-02  mag=    -0.0000
 BRION: g(F)=  0.186E-02 g(S)=  0.000E+00 retain N=  2 mean eig= 0.39
 eig:   0.045  0.733
 bond charge predicted
       N       E                     dE             d eps       ncg     rms          rms(c)
DAV:   1    -0.854070335873E+03   -0.27019E-03   -0.35159E-02  1712   0.271E-01    0.250E-02
DAV:   2    -0.854070363099E+03   -0.27225E-04   -0.52714E-04  2064   0.382E-02    0.171E-02
DAV:   3    -0.854070352320E+03    0.10779E-04   -0.16784E-05  1536   0.105E-02    0.107E-02
DAV:   4    -0.854070345829E+03    0.64913E-05   -0.11470E-05  1472   0.109E-02
  31 F= -.85407035E+03 E0= -.85407035E+03  d E =-.279056E-03  mag=    -0.0000
 BRION: g(F)=  0.202E-02 g(S)=  0.000E+00 retain N=  3 mean eig= 2.45
 eig:   6.696  0.320  0.320
 bond charge predicted
       N       E                     dE             d eps       ncg     rms          rms(c)
DAV:   1    -0.854072441501E+03   -0.20892E-02   -0.51208E+00  1680   0.249E+00    0.148E-01
DAV:   2    -0.854074768888E+03   -0.23274E-02   -0.27740E-02  2032   0.242E-01    0.673E-02
DAV:   3    -0.854074687052E+03    0.81836E-04   -0.40463E-04  2080   0.379E-02    0.414E-02
DAV:   4    -0.854074619947E+03    0.67105E-04   -0.14820E-04  2000   0.328E-02    0.122E-02
DAV:   5    -0.854074621267E+03   -0.13201E-05   -0.66556E-05  2032   0.174E-02
  32 F= -.85407462E+03 E0= -.85407462E+03  d E =-.427544E-02  mag=     0.0000
 BRION: g(F)=  0.271E-02 g(S)=  0.000E+00 retain N=  3 mean eig= 1.24
 eig:   1.486  1.486  0.746
 bond charge predicted
       N       E                     dE             d eps       ncg     rms          rms(c)
DAV:   1    -0.854075521121E+03   -0.90117E-03   -0.30343E-01  1728   0.668E-01    0.495E-02
DAV:   2    -0.854075696513E+03   -0.17539E-03   -0.23302E-03  2048   0.764E-02    0.285E-02
DAV:   3    -0.854075677101E+03    0.19412E-04   -0.48200E-05  2016   0.158E-02    0.172E-02
DAV:   4    -0.854075670057E+03    0.70449E-05   -0.29471E-05  1776   0.154E-02
  33 F= -.85407567E+03 E0= -.85407567E+03  d E =-.104879E-02  mag=     0.0000
 BRION: g(F)=  0.212E-02 g(S)=  0.000E+00 retain N=  3 mean eig= 1.49
 eig:   4.171  0.241  0.061
 bond charge predicted
       N       E                     dE             d eps       ncg     rms          rms(c)
DAV:   1    -0.854072483882E+03    0.31932E-02   -0.17616E+00  1680   0.149E+00    0.898E-02
DAV:   2    -0.854073293376E+03   -0.80949E-03   -0.10061E-02  2032   0.151E-01    0.456E-02
DAV:   3    -0.854073248579E+03    0.44797E-04   -0.16253E-04  2048   0.253E-02    0.280E-02
DAV:   4    -0.854073215937E+03    0.32642E-04   -0.74559E-05  2016   0.240E-02    0.757E-03
DAV:   5    -0.854073216206E+03   -0.26931E-06   -0.33905E-05  1856   0.121E-02
  34 F= -.85407322E+03 E0= -.85407322E+03  d E =0.245385E-02  mag=    -0.0000
 BRION: g(F)=  0.256E-02 g(S)=  0.000E+00 retain N=  3 mean eig= 1.97
 eig:   5.064  0.427  0.427
 bond charge predicted
       N       E                     dE             d eps       ncg     rms          rms(c)
DAV:   1    -0.854075200478E+03   -0.19845E-02   -0.36279E+00  1680   0.212E+00    0.124E-01
DAV:   2    -0.854076892324E+03   -0.16918E-02   -0.19947E-02  2016   0.205E-01    0.578E-02
DAV:   3    -0.854076839189E+03    0.53135E-04   -0.26780E-04  2048   0.287E-02    0.353E-02
DAV:   4    -0.854076800702E+03    0.38486E-04   -0.11779E-04  1984   0.257E-02    0.919E-03
DAV:   5    -0.854076802968E+03   -0.22657E-05   -0.36552E-05  1904   0.114E-02
  35 F= -.85407680E+03 E0= -.85407680E+03  d E =-.358676E-02  mag=     0.0000
 BRION: g(F)=  0.162E-02 g(S)=  0.000E+00 retain N=  3 mean eig= 0.74
 eig:   1.731  0.030  0.459
 bond charge predicted
       N       E                     dE             d eps       ncg     rms          rms(c)
DAV:   1    -0.854076318772E+03    0.48193E-03   -0.86236E-02  1680   0.364E-01    0.248E-02
DAV:   2    -0.854076366260E+03   -0.47488E-04   -0.69833E-04  2064   0.425E-02    0.168E-02
DAV:   3    -0.854076358426E+03    0.78340E-05   -0.14995E-05  1536   0.906E-03
  36 F= -.85407636E+03 E0= -.85407636E+03  d E =0.444542E-03  mag=     0.0000
 BRION: g(F)=  0.127E-02 g(S)=  0.000E+00 retain N=  2 mean eig= 0.13
 eig:   0.185  0.073
 bond charge predicted
       N       E                     dE             d eps       ncg     rms          rms(c)
DAV:   1    -0.854077668154E+03   -0.13019E-02   -0.11162E+00  1680   0.120E+00    0.719E-02
DAV:   2    -0.854078228676E+03   -0.56052E-03   -0.65328E-03  1984   0.118E-01    0.337E-02
DAV:   3    -0.854078211372E+03    0.17304E-04   -0.83346E-05  1984   0.156E-02    0.207E-02
DAV:   4    -0.854078200053E+03    0.11319E-04   -0.44581E-05  1936   0.154E-02    0.585E-03
DAV:   5    -0.854078201234E+03   -0.11815E-05   -0.11678E-05  1312   0.643E-03
  37 F= -.85407820E+03 E0= -.85407820E+03  d E =-.184281E-02  mag=    -0.0000
 BRION: g(F)=  0.137E-02 g(S)=  0.000E+00 retain N=  3 mean eig= 0.70
 eig:   0.725  0.725  0.661
 bond charge predicted
       N       E                     dE             d eps       ncg     rms          rms(c)
DAV:   1    -0.854078992284E+03   -0.79223E-03   -0.30570E-01  1680   0.640E-01    0.414E-02
DAV:   2    -0.854079148606E+03   -0.15632E-03   -0.19151E-03  2048   0.664E-02    0.205E-02
DAV:   3    -0.854079138993E+03    0.96128E-05   -0.30011E-05  1792   0.115E-02
  38 F= -.85407914E+03 E0= -.85407914E+03  d E =-.937759E-03  mag=     0.0000
 BRION: g(F)=  0.129E-02 g(S)=  0.000E+00 retain N=  2 mean eig= 1.61
 eig:   0.259  2.959
 bond charge predicted
       N       E                     dE             d eps       ncg     rms          rms(c)
DAV:   1    -0.854079388603E+03   -0.24000E-03   -0.74467E-02  1712   0.382E-01    0.330E-02
DAV:   2    -0.854079436648E+03   -0.48045E-04   -0.93319E-04  2096   0.513E-02    0.220E-02
DAV:   3    -0.854079417542E+03    0.19105E-04   -0.32117E-05  1888   0.141E-02    0.136E-02
DAV:   4    -0.854079406775E+03    0.10767E-04   -0.16435E-05  1552   0.129E-02    0.430E-03
DAV:   5    -0.854079406244E+03    0.53164E-06   -0.13227E-05  1472   0.869E-03
  39 F= -.85407941E+03 E0= -.85407941E+03  d E =-.267250E-03  mag=    -0.0000
 BRION: g(F)=  0.244E-02 g(S)=  0.000E+00 retain N=  3 mean eig= 1.57
 eig:   4.283  0.413  0.023
 bond charge predicted
       N       E                     dE             d eps       ncg     rms          rms(c)
DAV:   1    -0.854080610984E+03   -0.12042E-02   -0.79191E-01  1680   0.102E+00    0.642E-02
DAV:   2    -0.854081010290E+03   -0.39931E-03   -0.48490E-03  2032   0.105E-01    0.321E-02
DAV:   3    -0.854080988836E+03    0.21454E-04   -0.73628E-05  2048   0.165E-02    0.197E-02
DAV:   4    -0.854080975242E+03    0.13594E-04   -0.38052E-05  1920   0.157E-02    0.541E-03
DAV:   5    -0.854080976230E+03   -0.98710E-06   -0.14041E-05  1408   0.754E-03
  40 F= -.85408098E+03 E0= -.85408098E+03  d E =-.156999E-02  mag=     0.0000
 BRION: g(F)=  0.118E-02 g(S)=  0.000E+00 retain N=  3 mean eig= 2.29
 eig:   6.500  0.014  0.354
 bond charge predicted
       N       E                     dE             d eps       ncg     rms          rms(c)
DAV:   1    -0.854080447313E+03    0.52793E-03   -0.10234E-01  1680   0.383E-01    0.254E-02
DAV:   2    -0.854080501434E+03   -0.54121E-04   -0.74054E-04  2048   0.429E-02    0.158E-02
DAV:   3    -0.854080494840E+03    0.65938E-05   -0.14319E-05  1568   0.865E-03
  41 F= -.85408049E+03 E0= -.85408049E+03  d E =0.481389E-03  mag=    -0.0000
 BRION: g(F)=  0.110E-02 g(S)=  0.000E+00 retain N=  2 mean eig= 0.13
 eig:   0.219  0.047
 bond charge predicted
       N       E                     dE             d eps       ncg     rms          rms(c)
DAV:   1    -0.854081385452E+03   -0.88402E-03   -0.49107E-01  1680   0.810E-01    0.497E-02
DAV:   2    -0.854081651719E+03   -0.26627E-03   -0.30806E-03  2000   0.816E-02    0.239E-02
DAV:   3    -0.854081642843E+03    0.88756E-05   -0.36673E-05  1760   0.106E-02
  42 F= -.85408164E+03 E0= -.85408164E+03  d E =-.114800E-02  mag=     0.0000
 BRION: g(F)=  0.106E-02 g(S)=  0.000E+00 retain N=  3 mean eig= 0.90
 eig:   2.127  0.293  0.293
 bond charge predicted
       N       E                     dE             d eps       ncg     rms          rms(c)
DAV:   1    -0.854081849184E+03   -0.19746E-03   -0.17664E-02  1696   0.156E-01    0.117E-02
DAV:   2    -0.854081857439E+03   -0.82554E-05   -0.10540E-04  2048   0.159E-02    0.612E-03
DAV:   3    -0.854081856906E+03    0.53291E-06   -0.28902E-06  1056   0.382E-03
  43 F= -.85408186E+03 E0= -.85408186E+03  d E =-.214063E-03  mag=     0.0000
 BRION: g(F)=  0.925E-03 g(S)=  0.000E+00 retain N=  3 mean eig= 2.29
 eig:   6.109  0.375  0.375
 bond charge predicted
       N       E                     dE             d eps       ncg     rms          rms(c)
DAV:   1    -0.854082871818E+03   -0.10144E-02   -0.12291E+00  1680   0.130E+00    0.822E-02
DAV:   2    -0.854083549559E+03   -0.67774E-03   -0.78821E-03  1984   0.132E-01    0.394E-02
DAV:   3    -0.854083524240E+03    0.25319E-04   -0.10053E-04  2048   0.180E-02    0.242E-02
DAV:   4    -0.854083508578E+03    0.15662E-04   -0.61448E-05  1968   0.187E-02    0.684E-03
DAV:   5    -0.854083510344E+03   -0.17657E-05   -0.17753E-05  1440   0.781E-03
  44 F= -.85408351E+03 E0= -.85408351E+03  d E =-.165344E-02  mag=    -0.0000
 BRION: g(F)=  0.172E-02 g(S)=  0.000E+00 retain N=  3 mean eig= 0.74
 eig:   0.909  0.909  0.393
 bond charge predicted
       N       E                     dE             d eps       ncg     rms          rms(c)
DAV:   1    -0.854083858882E+03   -0.35030E-03   -0.56249E-02  1728   0.323E-01    0.273E-02
DAV:   2    -0.854083897915E+03   -0.39033E-04   -0.63675E-04  2032   0.418E-02    0.173E-02
DAV:   3    -0.854083887771E+03    0.10144E-04   -0.16643E-05  1520   0.102E-02    0.106E-02
DAV:   4    -0.854083882627E+03    0.51438E-05   -0.13956E-05  1472   0.110E-02
  45 F= -.85408388E+03 E0= -.85408388E+03  d E =-.372283E-03  mag=    -0.0000
 BRION: g(F)=  0.124E-02 g(S)=  0.000E+00 retain N=  3 mean eig= 2.62
 eig:   7.196  0.486  0.183
 bond charge predicted
       N       E                     dE             d eps       ncg     rms          rms(c)
DAV:   1    -0.854084212661E+03   -0.32489E-03   -0.68684E-02  1680   0.347E-01    0.272E-02
DAV:   2    -0.854084261143E+03   -0.48482E-04   -0.70460E-04  2064   0.431E-02    0.170E-02
DAV:   3    -0.854084252158E+03    0.89850E-05   -0.14145E-05  1504   0.931E-03
  46 F= -.85408425E+03 E0= -.85408425E+03  d E =-.369531E-03  mag=     0.0000
 BRION: g(F)=  0.129E-02 g(S)=  0.000E+00 retain N=  2 mean eig= 0.11
 eig:   0.211  0.016
 bond charge predicted
       N       E                     dE             d eps       ncg     rms          rms(c)
DAV:   1    -0.854084559639E+03   -0.29850E-03   -0.16021E-01  1712   0.547E-01    0.439E-02
DAV:   2    -0.854084672065E+03   -0.11243E-03   -0.18213E-03  2064   0.708E-02    0.290E-02
DAV:   3    -0.854084641483E+03    0.30581E-04   -0.52069E-05  2048   0.184E-02    0.182E-02
DAV:   4    -0.854084619117E+03    0.22367E-04   -0.22927E-05  1680   0.182E-02    0.578E-03
DAV:   5    -0.854084616406E+03    0.27108E-05   -0.25037E-05  1696   0.130E-02
  47 F= -.85408462E+03 E0= -.85408462E+03  d E =-.364248E-03  mag=     0.0000
 BRION: g(F)=  0.289E-02 g(S)=  0.000E+00 retain N=  3 mean eig= 0.23
 eig:   0.235  0.163  0.295
 bond charge predicted
       N       E                     dE             d eps       ncg     rms          rms(c)
DAV:   1    -0.854085006340E+03   -0.38722E-03   -0.31592E-02  1712   0.277E-01    0.287E-02
DAV:   2    -0.854085036861E+03   -0.30521E-04   -0.64234E-04  2080   0.420E-02    0.201E-02
DAV:   3    -0.854085022980E+03    0.13882E-04   -0.28479E-05  1856   0.134E-02    0.121E-02
DAV:   4    -0.854085016601E+03    0.63782E-05   -0.11074E-05  1488   0.938E-03
  48 F= -.85408502E+03 E0= -.85408502E+03  d E =-.400195E-03  mag=     0.0000
 BRION: g(F)=  0.807E-03 g(S)=  0.000E+00 retain N=  1 mean eig= 0.23
 eig:   0.225
 bond charge predicted
       N       E                     dE             d eps       ncg     rms          rms(c)
DAV:   1    -0.854085656844E+03   -0.63386E-03   -0.28112E-01  1680   0.618E-01    0.392E-02
DAV:   2    -0.854085813475E+03   -0.15663E-03   -0.17962E-03  1984   0.621E-02    0.184E-02
DAV:   3    -0.854085808649E+03    0.48268E-05   -0.21406E-05  1680   0.805E-03
  49 F= -.85408581E+03 E0= -.85408581E+03  d E =-.792047E-03  mag=     0.0000
 BRION: g(F)=  0.855E-03 g(S)=  0.000E+00 retain N=  2 mean eig= 0.14
 eig:   0.243  0.042
 bond charge predicted
       N       E                     dE             d eps       ncg     rms          rms(c)
DAV:   1    -0.854085973172E+03   -0.15970E-03   -0.13257E-02  1696   0.139E-01    0.106E-02
DAV:   2    -0.854085979862E+03   -0.66893E-05   -0.85211E-05  2016   0.143E-02
  50 F= -.85408598E+03 E0= -.85408598E+03  d E =-.171213E-03  mag=     0.0000
 BRION: g(F)=  0.709E-03 g(S)=  0.000E+00 retain N=  3 mean eig= 1.99
 eig:   0.204  2.885  2.885
 bond charge predicted
       N       E                     dE             d eps       ncg     rms          rms(c)
DAV:   1    -0.854083922749E+03    0.20504E-02   -0.12093E+01  1680   0.413E+00    0.265E-01
DAV:   2    -0.854091128631E+03   -0.72059E-02   -0.82336E-02  1984   0.429E-01    0.126E-01
DAV:   3    -0.854090890079E+03    0.23855E-03   -0.98609E-04  2048   0.582E-02    0.774E-02
DAV:   4    -0.854090727906E+03    0.16217E-03   -0.63946E-04  1984   0.575E-02    0.224E-02
DAV:   5    -0.854090744100E+03   -0.16194E-04   -0.16489E-04  1952   0.230E-02    0.222E-02
DAV:   6    -0.854090750419E+03   -0.63188E-05   -0.31307E-05  1760   0.116E-02
  51 F= -.85409075E+03 E0= -.85409075E+03  d E =-.477056E-02  mag=    -0.0000
 BRION: g(F)=  0.124E-02 g(S)=  0.000E+00 retain N=  4 mean eig= 2.40
 eig:   4.136  4.136  0.207  1.119
 bond charge predicted
       N       E                     dE             d eps       ncg     rms          rms(c)
DAV:   1    -0.854091358911E+03   -0.61481E-03   -0.29547E+00  1680   0.204E+00    0.132E-01
DAV:   2    -0.854093122521E+03   -0.17636E-02   -0.20040E-02  1984   0.210E-01    0.616E-02
DAV:   3    -0.854093065796E+03    0.56725E-04   -0.23338E-04  2000   0.268E-02    0.379E-02
DAV:   4    -0.854093041617E+03    0.24179E-04   -0.15926E-04  1936   0.287E-02    0.113E-02
DAV:   5    -0.854093052296E+03   -0.10679E-04   -0.42007E-05  1920   0.116E-02    0.113E-02
DAV:   6    -0.854093060738E+03   -0.84419E-05   -0.66446E-06  1392   0.586E-03
  52 F= -.85409306E+03 E0= -.85409306E+03  d E =-.231032E-02  mag=    -0.0000
 BRION: g(F)=  0.837E-03 g(S)=  0.000E+00 retain N=  4 mean eig= 3.49
 eig:   5.544  5.544  1.443  1.443
 bond charge predicted
       N       E                     dE             d eps       ncg     rms          rms(c)
DAV:   1    -0.854090550947E+03    0.25013E-02   -0.11524E+01  1680   0.401E+00    0.257E-01
DAV:   2    -0.854097429240E+03   -0.68783E-02   -0.78253E-02  1984   0.416E-01    0.121E-01
DAV:   3    -0.854097213434E+03    0.21581E-03   -0.90801E-04  2048   0.547E-02    0.745E-02
DAV:   4    -0.854097078823E+03    0.13461E-03   -0.60431E-04  1952   0.545E-02    0.214E-02
DAV:   5    -0.854097098951E+03   -0.20128E-04   -0.14453E-04  1904   0.212E-02    0.211E-02
DAV:   6    -0.854097112379E+03   -0.13428E-04   -0.31878E-05  1808   0.120E-02    0.999E-03
DAV:   7    -0.854097134536E+03   -0.22156E-04   -0.54876E-06  1392   0.550E-03    0.504E-03
DAV:   8    -0.854097161777E+03   -0.27241E-04   -0.36862E-06  1440   0.562E-03    0.313E-03
DAV:   9    -0.854097173471E+03   -0.11694E-04   -0.31200E-06  1424   0.371E-03    0.245E-03
DAV:  10    -0.854097179904E+03   -0.64330E-05   -0.12198E-06  1424   0.297E-03
  53 F= -.85409718E+03 E0= -.85409718E+03  d E =-.411917E-02  mag=    -0.0000
 BRION: g(F)=  0.873E-03 g(S)=  0.000E+00 retain N=  4 mean eig= 3.49
 eig:   5.655  5.655  1.319  1.319
 bond charge predicted
       N       E                     dE             d eps       ncg     rms          rms(c)
DAV:   1    -0.854073389976E+03    0.23783E-01   -0.29322E+01  1680   0.640E+00    0.415E-01
DAV:   2    -0.854091371836E+03   -0.17982E-01   -0.20621E-01  1968   0.695E-01    0.200E-01
DAV:   3    -0.854090781556E+03    0.59028E-03   -0.26463E-03  2096   0.103E-01    0.122E-01
DAV:   4    -0.854090389889E+03    0.39167E-03   -0.14899E-03  1952   0.845E-02    0.335E-02
DAV:   5    -0.854090416108E+03   -0.26220E-04   -0.37317E-04  2048   0.347E-02    0.328E-02
DAV:   6    -0.854090414338E+03    0.17703E-05   -0.83380E-05  1904   0.185E-02
  54 F= -.85409041E+03 E0= -.85409041E+03  d E =0.676557E-02  mag=    -0.0000
 BRION: g(F)=  0.124E-02 g(S)=  0.000E+00 retain N=  3 mean eig= 3.39
 eig:   0.980  4.599  4.599
 bond charge predicted
       N       E                     dE             d eps       ncg     rms          rms(c)
DAV:   1    -0.854082654510E+03    0.77616E-02   -0.23969E+01  1680   0.581E+00    0.372E-01
DAV:   2    -0.854097240417E+03   -0.14586E-01   -0.16692E-01  1968   0.620E-01    0.181E-01
DAV:   3    -0.854096775558E+03    0.46486E-03   -0.20705E-03  2080   0.875E-02    0.111E-01
DAV:   4    -0.854096466609E+03    0.30895E-03   -0.12673E-03  1936   0.787E-02    0.303E-02
DAV:   5    -0.854096485535E+03   -0.18926E-04   -0.29507E-04  2064   0.300E-02    0.297E-02
DAV:   6    -0.854096483951E+03    0.15835E-05   -0.66544E-05  1936   0.167E-02
  55 F= -.85409648E+03 E0= -.85409648E+03  d E =-.606961E-02  mag=    -0.0000
 BRION: g(F)=  0.240E-02 g(S)=  0.000E+00 retain N=  4 mean eig= 2.75
 eig:   4.519  4.519  1.229  0.715
 bond charge predicted
       N       E                     dE             d eps       ncg     rms          rms(c)
DAV:   1    -0.854097094713E+03   -0.60918E-03   -0.23398E+00  1680   0.182E+00    0.121E-01
DAV:   2    -0.854098495736E+03   -0.14010E-02   -0.16141E-02  1984   0.190E-01    0.562E-02
DAV:   3    -0.854098442870E+03    0.52866E-04   -0.19971E-04  2048   0.265E-02    0.346E-02
DAV:   4    -0.854098412074E+03    0.30796E-04   -0.12374E-04  1968   0.285E-02    0.104E-02
DAV:   5    -0.854098420201E+03   -0.81274E-05   -0.45453E-05  1936   0.125E-02
  56 F= -.85409842E+03 E0= -.85409842E+03  d E =-.193625E-02  mag=    -0.0000
 BRION: g(F)=  0.551E-03 g(S)=  0.000E+00 retain N=  2 mean eig= 2.19
 eig:   0.217  4.153
 bond charge predicted
       N       E                     dE             d eps       ncg     rms          rms(c)
DAV:   1    -0.854098870074E+03   -0.45800E-03   -0.13995E+00  1680   0.142E+00    0.958E-02
DAV:   2    -0.854099735064E+03   -0.86499E-03   -0.99066E-03  1984   0.149E-01    0.447E-02
DAV:   3    -0.854099702849E+03    0.32214E-04   -0.12107E-04  2048   0.198E-02    0.277E-02
DAV:   4    -0.854099691267E+03    0.11582E-04   -0.92339E-05  1920   0.229E-02    0.944E-03
DAV:   5    -0.854099697545E+03   -0.62776E-05   -0.24127E-05  1744   0.931E-03
  57 F= -.85409970E+03 E0= -.85409970E+03  d E =-.127734E-02  mag=     0.0000
 BRION: g(F)=  0.108E-02 g(S)=  0.000E+00 retain N=  3 mean eig= 1.66
 eig:   4.274  0.363  0.343
 bond charge predicted
       N       E                     dE             d eps       ncg     rms          rms(c)
DAV:   1    -0.854100248694E+03   -0.55743E-03   -0.53083E-01  1680   0.870E-01    0.594E-02
DAV:   2    -0.854100573559E+03   -0.32486E-03   -0.37366E-03  1968   0.920E-02    0.280E-02
DAV:   3    -0.854100562765E+03    0.10794E-04   -0.47715E-05  1856   0.132E-02    0.173E-02
DAV:   4    -0.854100562869E+03   -0.10377E-06   -0.35680E-05  1856   0.148E-02
  58 F= -.85410056E+03 E0= -.85410056E+03  d E =-.865324E-03  mag=     0.0000
 BRION: g(F)=  0.471E-03 g(S)=  0.000E+00 retain N=  1 mean eig= 0.28
 eig:   0.277
 bond charge predicted
       N       E                     dE             d eps       ncg     rms          rms(c)
DAV:   1    -0.854100809614E+03   -0.24685E-03   -0.95280E-02  1680   0.391E-01    0.300E-02
DAV:   2    -0.854100876771E+03   -0.67157E-04   -0.82397E-04  2048   0.456E-02    0.165E-02
DAV:   3    -0.854100871818E+03    0.49533E-05   -0.14991E-05  1536   0.904E-03
  59 F= -.85410087E+03 E0= -.85410087E+03  d E =-.308949E-03  mag=     0.0000
 BRION: g(F)=  0.701E-03 g(S)=  0.000E+00 retain N=  2 mean eig= 0.19
 eig:   0.326  0.056
 bond charge predicted
       N       E                     dE             d eps       ncg     rms          rms(c)
DAV:   1    -0.854101035586E+03   -0.15882E-03   -0.17102E-02  1728   0.176E-01    0.148E-02
DAV:   2    -0.854101051534E+03   -0.15948E-04   -0.19572E-04  2048   0.224E-02    0.968E-03
DAV:   3    -0.854101050191E+03    0.13428E-05   -0.38474E-06  1408   0.484E-03
  60 F= -.85410105E+03 E0= -.85410105E+03  d E =-.178374E-03  mag=     0.0000
 BRION: g(F)=  0.466E-03 g(S)=  0.000E+00 retain N=  2 mean eig= 2.77
 eig:   0.250  5.282
 bond charge predicted
       N       E                     dE             d eps       ncg     rms          rms(c)
DAV:   1    -0.854101192070E+03   -0.14054E-03   -0.18166E-02  1728   0.162E-01    0.112E-02
DAV:   2    -0.854101203482E+03   -0.11412E-04   -0.12428E-04  2016   0.167E-02    0.535E-03
DAV:   3    -0.854101203443E+03    0.39348E-07   -0.15170E-06  1232   0.225E-03
  61 F= -.85410120E+03 E0= -.85410120E+03  d E =-.153251E-03  mag=    -0.0000
 BRION: g(F)=  0.453E-03 g(S)=  0.000E+00 retain N=  3 mean eig= 1.81
 eig:   0.154  0.084  5.180
 bond charge predicted
       N       E                     dE             d eps       ncg     rms          rms(c)
DAV:   1    -0.854101306058E+03   -0.10258E-03   -0.92167E-03  1712   0.119E-01    0.850E-03
DAV:   2    -0.854101312232E+03   -0.61741E-05   -0.68042E-05  1936   0.126E-02
  62 F= -.85410131E+03 E0= -.85410131E+03  d E =-.108790E-03  mag=    -0.0000
 BRION: g(F)=  0.416E-03 g(S)=  0.000E+00 retain N=  4 mean eig= 2.85
 eig:   2.814  2.814  0.467  5.312
 bond charge predicted
       N       E                     dE             d eps       ncg     rms          rms(c)
DAV:   1    -0.854099658195E+03    0.16479E-02   -0.69518E+00  1680   0.325E+00    0.218E-01
DAV:   2    -0.854104319597E+03   -0.46614E-02   -0.52579E-02  1984   0.346E-01    0.104E-01
DAV:   3    -0.854104163563E+03    0.15603E-03   -0.60376E-04  2048   0.444E-02    0.645E-02
DAV:   4    -0.854104066249E+03    0.97314E-04   -0.46222E-04  1952   0.493E-02    0.202E-02
DAV:   5    -0.854104076433E+03   -0.10185E-04   -0.11402E-04  1936   0.192E-02    0.203E-02
DAV:   6    -0.854104079833E+03   -0.33997E-05   -0.24201E-05  1664   0.101E-02
  63 F= -.85410408E+03 E0= -.85410408E+03  d E =-.276760E-02  mag=     0.0000
 BRION: g(F)=  0.140E-02 g(S)=  0.000E+00 retain N=  5 mean eig= 4.03
 eig:   6.946  6.946  5.424  0.575  0.283
 bond charge predicted
       N       E                     dE             d eps       ncg     rms          rms(c)
DAV:   1    -0.854102236518E+03    0.18399E-02   -0.71939E+00  1680   0.330E+00    0.221E-01
DAV:   2    -0.854107100214E+03   -0.48637E-02   -0.54586E-02  1984   0.352E-01    0.104E-01
DAV:   3    -0.854106938366E+03    0.16185E-03   -0.60350E-04  2048   0.442E-02    0.646E-02
DAV:   4    -0.854106845138E+03    0.93228E-04   -0.48017E-04  1952   0.502E-02    0.203E-02
DAV:   5    -0.854106859684E+03   -0.14545E-04   -0.11774E-04  1920   0.194E-02    0.205E-02
DAV:   6    -0.854106868854E+03   -0.91700E-05   -0.26480E-05  1744   0.109E-02
  64 F= -.85410687E+03 E0= -.85410687E+03  d E =-.278902E-02  mag=    -0.0000
 BRION: g(F)=  0.111E-02 g(S)=  0.000E+00 retain N=  4 mean eig= 2.33
 eig:   3.600  3.600  1.052  1.052
 bond charge predicted
       N       E                     dE             d eps       ncg     rms          rms(c)
DAV:   1    -0.854107249704E+03   -0.39002E-03   -0.35377E-01  1680   0.735E-01    0.499E-02
DAV:   2    -0.854107500662E+03   -0.25096E-03   -0.27434E-03  2032   0.792E-02    0.245E-02
DAV:   3    -0.854107496172E+03    0.44902E-05   -0.30446E-05  1760   0.104E-02
  65 F= -.85410750E+03 E0= -.85410750E+03  d E =-.627319E-03  mag=     0.0000
 BRION: g(F)=  0.107E-02 g(S)=  0.000E+00 retain N=  4 mean eig= 1.11
 eig:   1.962  1.962  0.496  0.027
 bond charge predicted
       N       E                     dE             d eps       ncg     rms          rms(c)
DAV:   1    -0.854074280191E+03    0.33220E-01   -0.39856E+01  1680   0.774E+00    0.524E-01
DAV:   2    -0.854102275112E+03   -0.27995E-01   -0.31573E-01  1984   0.874E-01    0.254E-01
DAV:   3    -0.854101358518E+03    0.91659E-03   -0.38392E-03  2112   0.127E-01    0.156E-01
DAV:   4    -0.854100780011E+03    0.57851E-03   -0.25357E-03  1952   0.112E-01    0.442E-02
DAV:   5    -0.854100818234E+03   -0.38223E-04   -0.57600E-04  2064   0.431E-02    0.437E-02
DAV:   6    -0.854100815316E+03    0.29178E-05   -0.17041E-04  1872   0.268E-02    0.201E-02
DAV:   7    -0.854100822203E+03   -0.68867E-05   -0.17383E-05  1472   0.923E-03
  66 F= -.85410082E+03 E0= -.85410082E+03  d E =0.667397E-02  mag=    -0.0000
 BRION: g(F)=  0.684E-03 g(S)=  0.000E+00 retain N=  3 mean eig= 0.77
 eig:   1.087  1.087  0.134
 bond charge predicted
       N       E                     dE             d eps       ncg     rms          rms(c)
DAV:   1    -0.854099216211E+03    0.15991E-02   -0.69365E+00  1680   0.324E+00    0.218E-01
DAV:   2    -0.854103887817E+03   -0.46716E-02   -0.52639E-02  1968   0.347E-01    0.104E-01
DAV:   3    -0.854103741905E+03    0.14591E-03   -0.59843E-04  2064   0.443E-02    0.641E-02
DAV:   4    -0.854103651229E+03    0.90676E-04   -0.45252E-04  1952   0.497E-02    0.193E-02
DAV:   5    -0.854103657700E+03   -0.64708E-05   -0.11810E-04  2064   0.193E-02    0.197E-02
DAV:   6    -0.854103655066E+03    0.26346E-05   -0.18695E-05  1472   0.906E-03
  67 F= -.85410366E+03 E0= -.85410366E+03  d E =-.283286E-02  mag=     0.0000
 BRION: g(F)=  0.184E-02 g(S)=  0.000E+00 retain N=  4 mean eig= 0.65
 eig:   1.091  1.091  0.278  0.149
 bond charge predicted
       N       E                     dE             d eps       ncg     rms          rms(c)
DAV:   1    -0.854104208314E+03   -0.55061E-03   -0.31679E-01  1680   0.710E-01    0.515E-02
DAV:   2    -0.854104434610E+03   -0.22630E-03   -0.27174E-03  2048   0.813E-02    0.278E-02
DAV:   3    -0.854104418597E+03    0.16013E-04   -0.39400E-05  1920   0.128E-02    0.175E-02
DAV:   4    -0.854104409513E+03    0.90838E-05   -0.36428E-05  1824   0.146E-02
  68 F= -.85410441E+03 E0= -.85410441E+03  d E =-.754448E-03  mag=    -0.0000
 BRION: g(F)=  0.411E-03 g(S)=  0.000E+00 retain N=  1 mean eig= 0.27
 eig:   0.267
 bond charge predicted
       N       E                     dE             d eps       ncg     rms          rms(c)
DAV:   1    -0.854104653537E+03   -0.23494E-03   -0.12072E-01  1680   0.433E-01    0.325E-02
DAV:   2    -0.854104731370E+03   -0.77832E-04   -0.98737E-04  2048   0.496E-02    0.174E-02
DAV:   3    -0.854104723548E+03    0.78216E-05   -0.17358E-05  1600   0.968E-03
  69 F= -.85410472E+03 E0= -.85410472E+03  d E =-.314035E-03  mag=    -0.0000
 BRION: g(F)=  0.712E-03 g(S)=  0.000E+00 retain N=  2 mean eig= 0.20
 eig:   0.300  0.108
 bond charge predicted
       N       E                     dE             d eps       ncg     rms          rms(c)
DAV:   1    -0.854104857909E+03   -0.12654E-03   -0.12246E-02  1680   0.157E-01    0.144E-02
DAV:   2    -0.854104871038E+03   -0.13128E-04   -0.18056E-04  2032   0.217E-02    0.996E-03
DAV:   3    -0.854104868909E+03    0.21288E-05   -0.40172E-06  1344   0.515E-03
  70 F= -.85410487E+03 E0= -.85410487E+03  d E =-.145361E-03  mag=     0.0000
 BRION: g(F)=  0.412E-03 g(S)=  0.000E+00 retain N=  1 mean eig= 0.30
 eig:   0.303
 bond charge predicted
       N       E                     dE             d eps       ncg     rms          rms(c)
DAV:   1    -0.854105184997E+03   -0.31396E-03   -0.15505E-01  1680   0.479E-01    0.323E-02
DAV:   2    -0.854105283074E+03   -0.98077E-04   -0.11251E-03  2048   0.506E-02    0.155E-02
DAV:   3    -0.854105279057E+03    0.40170E-05   -0.13514E-05  1488   0.694E-03
  71 F= -.85410528E+03 E0= -.85410528E+03  d E =-.410148E-03  mag=    -0.0000
 BRION: g(F)=  0.446E-03 g(S)=  0.000E+00 retain N=  2 mean eig= 0.25
 eig:   0.350  0.156
 bond charge predicted
       N       E                     dE             d eps       ncg     rms          rms(c)
DAV:   1    -0.854105370628E+03   -0.87554E-04   -0.79563E-03  1696   0.113E-01    0.938E-03
DAV:   2    -0.854105375857E+03   -0.52292E-05   -0.65267E-05  1984   0.128E-02
  72 F= -.85410538E+03 E0= -.85410538E+03  d E =-.968001E-04  mag=    -0.0000
 BRION: g(F)=  0.350E-03 g(S)=  0.000E+00 retain N=  3 mean eig= 2.35
 eig:   6.865  0.096  0.094
 bond charge predicted
       N       E                     dE             d eps       ncg     rms          rms(c)
DAV:   1    -0.854105249531E+03    0.12110E-03   -0.28811E+00  1680   0.208E+00    0.141E-01
DAV:   2    -0.854107150536E+03   -0.19010E-02   -0.21459E-02  1984   0.220E-01    0.668E-02
DAV:   3    -0.854107087000E+03    0.63536E-04   -0.24751E-04  2048   0.286E-02    0.415E-02
DAV:   4    -0.854107049270E+03    0.37730E-04   -0.20396E-04  1952   0.335E-02    0.143E-02
DAV:   5    -0.854107053266E+03   -0.39957E-05   -0.51937E-05  1856   0.133E-02
  73 F= -.85410705E+03 E0= -.85410705E+03  d E =-.167741E-02  mag=     0.0000
 BRION: g(F)=  0.929E-03 g(S)=  0.000E+00 retain N=  3 mean eig= 2.14
 eig:   5.735  0.344  0.344
 bond charge predicted
       N       E                     dE             d eps       ncg     rms          rms(c)
DAV:   1    -0.854107314544E+03   -0.26527E-03   -0.14799E-01  1680   0.509E-01    0.411E-02
DAV:   2    -0.854107437124E+03   -0.12258E-03   -0.14661E-03  2032   0.604E-02    0.210E-02
DAV:   3    -0.854107428846E+03    0.82786E-05   -0.23142E-05  1680   0.100E-02
  74 F= -.85410743E+03 E0= -.85410743E+03  d E =-.375580E-03  mag=    -0.0000
 BRION: g(F)=  0.935E-03 g(S)=  0.000E+00 retain N=  3 mean eig= 0.26
 eig:   0.212  0.289  0.289
 bond charge predicted
       N       E                     dE             d eps       ncg     rms          rms(c)
DAV:   1    -0.854104421266E+03    0.30159E-02   -0.23386E+00  1680   0.189E+00    0.125E-01
DAV:   2    -0.854106013967E+03   -0.15927E-02   -0.17871E-02  2000   0.202E-01    0.603E-02
DAV:   3    -0.854105962243E+03    0.51725E-04   -0.20036E-04  2048   0.257E-02    0.373E-02
DAV:   4    -0.854105929646E+03    0.32597E-04   -0.15797E-04  1952   0.295E-02    0.114E-02
DAV:   5    -0.854105931739E+03   -0.20931E-05   -0.41252E-05  1968   0.115E-02
  75 F= -.85410593E+03 E0= -.85410593E+03  d E =0.149711E-02  mag=     0.0000
 BRION: g(F)=  0.501E-03 g(S)=  0.000E+00 retain N=  2 mean eig= 0.48
 eig:   0.297  0.659
 bond charge predicted
       N       E                     dE             d eps       ncg     rms          rms(c)
DAV:   1    -0.854106197777E+03   -0.26813E-03   -0.43356E-01  1680   0.842E-01    0.565E-02
DAV:   2    -0.854106501294E+03   -0.30352E-03   -0.37254E-03  2032   0.960E-02    0.334E-02
DAV:   3    -0.854106475938E+03    0.25356E-04   -0.57581E-05  2048   0.159E-02    0.210E-02
DAV:   4    -0.854106456618E+03    0.19320E-04   -0.38279E-05  1952   0.174E-02    0.516E-03
DAV:   5    -0.854106457099E+03   -0.48127E-06   -0.19425E-05  1520   0.883E-03
  76 F= -.85410646E+03 E0= -.85410646E+03  d E =-.525360E-03  mag=     0.0000
 BRION: g(F)=  0.173E-02 g(S)=  0.000E+00 retain N=  3 mean eig= 0.37
 eig:   0.231  0.231  0.636
 bond charge predicted
       N       E                     dE             d eps       ncg     rms          rms(c)
DAV:   1    -0.854106712901E+03   -0.25628E-03   -0.25273E-02  1680   0.243E-01    0.246E-02
DAV:   2    -0.854106737202E+03   -0.24301E-04   -0.47609E-04  2096   0.366E-02    0.171E-02
DAV:   3    -0.854106727578E+03    0.96238E-05   -0.16340E-05  1488   0.995E-03
  77 F= -.85410673E+03 E0= -.85410673E+03  d E =-.270479E-03  mag=     0.0000
 BRION: g(F)=  0.382E-03 g(S)=  0.000E+00 retain N=  1 mean eig= 0.24
 eig:   0.238
 bond charge predicted
       N       E                     dE             d eps       ncg     rms          rms(c)
DAV:   1    -0.854107007305E+03   -0.27010E-03   -0.13141E-01  1680   0.437E-01    0.300E-02
DAV:   2    -0.854107087943E+03   -0.80638E-04   -0.94169E-04  2032   0.466E-02    0.145E-02
DAV:   3    -0.854107084039E+03    0.39033E-05   -0.12703E-05  1584   0.724E-03
  78 F= -.85410708E+03 E0= -.85410708E+03  d E =-.356461E-03  mag=    -0.0000
 BRION: g(F)=  0.443E-03 g(S)=  0.000E+00 retain N=  2 mean eig= 0.14
 eig:   0.264  0.019
 bond charge predicted
       N       E                     dE             d eps       ncg     rms          rms(c)
DAV:   1    -0.854107181495E+03   -0.93552E-04   -0.98522E-03  1696   0.129E-01    0.108E-02
DAV:   2    -0.854107188117E+03   -0.66221E-05   -0.90134E-05  2032   0.153E-02
  79 F= -.85410719E+03 E0= -.85410719E+03  d E =-.104078E-03  mag=    -0.0000
 BRION: g(F)=  0.326E-03 g(S)=  0.000E+00 retain N=  3 mean eig= 2.63
 eig:   7.660  0.147  0.081
 bond charge predicted
       N       E                     dE             d eps       ncg     rms          rms(c)
DAV:   1    -0.854107270571E+03   -0.89076E-04   -0.20652E+00  1680   0.176E+00    0.119E-01
DAV:   2    -0.854108629661E+03   -0.13591E-02   -0.15377E-02  1984   0.186E-01    0.566E-02
DAV:   3    -0.854108582877E+03    0.46784E-04   -0.17983E-04  2048   0.242E-02    0.348E-02
DAV:   4    -0.854108552277E+03    0.30600E-04   -0.12634E-04  1968   0.273E-02    0.105E-02
DAV:   5    -0.854108555588E+03   -0.33117E-05   -0.37249E-05  1792   0.111E-02
  80 F= -.85410856E+03 E0= -.85410856E+03  d E =-.136747E-02  mag=     0.0000
 BRION: g(F)=  0.873E-03 g(S)=  0.000E+00 retain N=  3 mean eig= 2.53
 eig:   6.888  0.347  0.347
 bond charge predicted
       N       E                     dE             d eps       ncg     rms          rms(c)
DAV:   1    -0.854108648557E+03   -0.96280E-04   -0.31707E-02  1728   0.270E-01    0.266E-02
DAV:   2    -0.854108684678E+03   -0.36122E-04   -0.54393E-04  2064   0.381E-02    0.168E-02
DAV:   3    -0.854108677309E+03    0.73695E-05   -0.13575E-05  1440   0.923E-03
  81 F= -.85410868E+03 E0= -.85410868E+03  d E =-.121721E-03  mag=     0.0000
 BRION: g(F)=  0.102E-02 g(S)=  0.000E+00 retain N=  3 mean eig= 0.51
 eig:   0.464  0.464  0.592
 bond charge predicted
       N       E                     dE             d eps       ncg     rms          rms(c)
DAV:   1    -0.854107055235E+03    0.16294E-02   -0.10577E+00  1680   0.127E+00    0.845E-02
DAV:   2    -0.854107775637E+03   -0.72040E-03   -0.81349E-03  2000   0.137E-01    0.414E-02
DAV:   3    -0.854107749790E+03    0.25847E-04   -0.95291E-05  2032   0.179E-02    0.255E-02
DAV:   4    -0.854107733153E+03    0.16637E-04   -0.70609E-05  1920   0.204E-02    0.737E-03
DAV:   5    -0.854107734278E+03   -0.11242E-05   -0.19957E-05  1664   0.816E-03
  82 F= -.85410773E+03 E0= -.85410773E+03  d E =0.943031E-03  mag=     0.0000
 BRION: g(F)=  0.438E-03 g(S)=  0.000E+00 retain N=  2 mean eig= 0.92
 eig:   0.237  1.602
 bond charge predicted
       N       E                     dE             d eps       ncg     rms          rms(c)
DAV:   1    -0.854107926322E+03   -0.19317E-03   -0.19557E-01  1680   0.581E-01    0.414E-02
DAV:   2    -0.854108072606E+03   -0.14628E-03   -0.18894E-03  2032   0.692E-02    0.255E-02
DAV:   3    -0.854108055496E+03    0.17110E-04   -0.33025E-05  1808   0.128E-02    0.161E-02
DAV:   4    -0.854108042556E+03    0.12940E-04   -0.24055E-05  1680   0.146E-02    0.401E-03
DAV:   5    -0.854108042903E+03   -0.34648E-06   -0.14998E-05  1312   0.782E-03
  83 F= -.85410804E+03 E0= -.85410804E+03  d E =-.308625E-03  mag=     0.0000
 BRION: g(F)=  0.146E-02 g(S)=  0.000E+00 retain N=  3 mean eig= 0.69
 eig:   1.637  0.232  0.210
 bond charge predicted
       N       E                     dE             d eps       ncg     rms          rms(c)
DAV:   1    -0.854108262992E+03   -0.22044E-03   -0.21149E-02  1712   0.218E-01    0.220E-02
DAV:   2    -0.854108282437E+03   -0.19445E-04   -0.37930E-04  2064   0.321E-02    0.153E-02
DAV:   3    -0.854108274373E+03    0.80645E-05   -0.12434E-05  1456   0.897E-03
  84 F= -.85410827E+03 E0= -.85410827E+03  d E =-.231470E-03  mag=     0.0000
 BRION: g(F)=  0.357E-03 g(S)=  0.000E+00 retain N=  1 mean eig= 0.24
 eig:   0.236
 bond charge predicted
       N       E                     dE             d eps       ncg     rms          rms(c)
DAV:   1    -0.854108546745E+03   -0.26431E-03   -0.12481E-01  1680   0.422E-01    0.283E-02
DAV:   2    -0.854108622015E+03   -0.75270E-04   -0.86312E-04  2000   0.439E-02    0.132E-02
DAV:   3    -0.854108619139E+03    0.28762E-05   -0.10381E-05  1536   0.604E-03
  85 F= -.85410862E+03 E0= -.85410862E+03  d E =-.344766E-03  mag=     0.0000
 BRION: g(F)=  0.382E-03 g(S)=  0.000E+00 retain N=  2 mean eig= 0.67
 eig:   0.235  1.107
 bond charge predicted
       N       E                     dE             d eps       ncg     rms          rms(c)
DAV:   1    -0.854108695907E+03   -0.73891E-04   -0.64048E-03  1696   0.988E-02    0.805E-03
DAV:   2    -0.854108699579E+03   -0.36723E-05   -0.45974E-05  1760   0.107E-02
  86 F= -.85410870E+03 E0= -.85410870E+03  d E =-.804399E-04  mag=     0.0000
 BRION: g(F)=  0.317E-03 g(S)=  0.000E+00 retain N=  3 mean eig= 1.69
 eig:   4.572  0.028  0.463
 bond charge predicted
       N       E                     dE             d eps       ncg     rms          rms(c)
DAV:   1    -0.854108073673E+03    0.62223E-03   -0.39980E+00  1680   0.244E+00    0.165E-01
DAV:   2    -0.854110689600E+03   -0.26159E-02   -0.29523E-02  1984   0.258E-01    0.769E-02
DAV:   3    -0.854110607412E+03    0.82188E-04   -0.34211E-04  2064   0.332E-02    0.477E-02
DAV:   4    -0.854110553460E+03    0.53952E-04   -0.24926E-04  1968   0.372E-02    0.153E-02
DAV:   5    -0.854110558736E+03   -0.52756E-05   -0.65540E-05  1904   0.149E-02
  87 F= -.85411056E+03 E0= -.85411056E+03  d E =-.185916E-02  mag=     0.0000
 BRION: g(F)=  0.954E-03 g(S)=  0.000E+00 retain N=  4 mean eig= 3.00
 eig:   5.562  5.562  0.243  0.622
 bond charge predicted
       N       E                     dE             d eps       ncg     rms          rms(c)
DAV:   1    -0.854110811757E+03   -0.25830E-03   -0.13215E+00  1680   0.141E+00    0.987E-02
DAV:   2    -0.854111689560E+03   -0.87780E-03   -0.99108E-03  1984   0.150E-01    0.434E-02
DAV:   3    -0.854111663143E+03    0.26417E-04   -0.11525E-04  2048   0.191E-02    0.269E-02
DAV:   4    -0.854111654322E+03    0.88211E-05   -0.87132E-05  1888   0.225E-02
  88 F= -.85411165E+03 E0= -.85411165E+03  d E =-.109559E-02  mag=     0.0000
 BRION: g(F)=  0.718E-03 g(S)=  0.000E+00 retain N=  3 mean eig= 0.93
 eig:   0.607  1.091  1.091
 bond charge predicted
       N       E                     dE             d eps       ncg     rms          rms(c)
DAV:   1    -0.854106131845E+03    0.55313E-02   -0.53436E+00  1680   0.284E+00    0.185E-01
DAV:   2    -0.854109685017E+03   -0.35532E-02   -0.39905E-02  2000   0.303E-01    0.901E-02
DAV:   3    -0.854109574508E+03    0.11051E-03   -0.45421E-04  2048   0.386E-02    0.555E-02
DAV:   4    -0.854109501376E+03    0.73132E-04   -0.31831E-04  1968   0.411E-02    0.153E-02
DAV:   5    -0.854109506250E+03   -0.48743E-05   -0.82801E-05  2048   0.164E-02
  89 F= -.85410951E+03 E0= -.85410951E+03  d E =0.214807E-02  mag=    -0.0000
 BRION: g(F)=  0.552E-03 g(S)=  0.000E+00 retain N=  3 mean eig= 2.80
 eig:   0.091  0.769  7.552
 bond charge predicted
       N       E                     dE             d eps       ncg     rms          rms(c)
DAV:   1    -0.854109594962E+03   -0.93585E-04   -0.86235E-03  1760   0.123E-01    0.113E-02
DAV:   2    -0.854109600860E+03   -0.58984E-05   -0.94207E-05  2064   0.160E-02
  90 F= -.85410960E+03 E0= -.85410960E+03  d E =-.946096E-04  mag=    -0.0000
 BRION: g(F)=  0.363E-03 g(S)=  0.000E+00 retain N=  3 mean eig= 0.51
 eig:   0.225  0.435  0.866
 bond charge predicted
       N       E                     dE             d eps       ncg     rms          rms(c)
DAV:   1    -0.854109947181E+03   -0.35222E-03   -0.12619E+00  1680   0.134E+00    0.865E-02
DAV:   2    -0.854110713311E+03   -0.76613E-03   -0.86284E-03  1984   0.138E-01    0.408E-02
DAV:   3    -0.854110691456E+03    0.21855E-04   -0.98913E-05  2000   0.168E-02    0.253E-02
DAV:   4    -0.854110676853E+03    0.14603E-04   -0.68725E-05  1920   0.190E-02    0.772E-03
DAV:   5    -0.854110677626E+03   -0.77293E-06   -0.16020E-05  1552   0.729E-03
  91 F= -.85411068E+03 E0= -.85411068E+03  d E =-.107677E-02  mag=     0.0000
 BRION: g(F)=  0.368E-03 g(S)=  0.000E+00 retain N=  4 mean eig= 1.12
 eig:   3.032  0.978  0.032  0.435
 bond charge predicted
       N       E                     dE             d eps       ncg     rms          rms(c)
DAV:   1    -0.854110814566E+03   -0.13771E-03   -0.25262E-02  1696   0.189E-01    0.146E-02
DAV:   2    -0.854110830358E+03   -0.15791E-04   -0.17846E-04  2000   0.200E-02    0.570E-03
DAV:   3    -0.854110829999E+03    0.35828E-06   -0.18841E-06  1024   0.280E-03
  92 F= -.85411083E+03 E0= -.85411083E+03  d E =-.152373E-03  mag=    -0.0000
 BRION: g(F)=  0.369E-03 g(S)=  0.000E+00 retain N=  2 mean eig= 1.80
 eig:   0.446  3.153
 bond charge predicted
       N       E                     dE             d eps       ncg     rms          rms(c)
DAV:   1    -0.854109385809E+03    0.14445E-02   -0.83951E-01  1680   0.109E+00    0.730E-02
DAV:   2    -0.854109911272E+03   -0.52546E-03   -0.59540E-03  2000   0.115E-01    0.351E-02
DAV:   3    -0.854109894222E+03    0.17050E-04   -0.67512E-05  1920   0.150E-02    0.218E-02
DAV:   4    -0.854109883851E+03    0.10371E-04   -0.55293E-05  1904   0.168E-02    0.691E-03
DAV:   5    -0.854109884321E+03   -0.47000E-06   -0.12542E-05  1360   0.672E-03
  93 F= -.85410988E+03 E0= -.85410988E+03  d E =0.945679E-03  mag=    -0.0000
 BRION: g(F)=  0.989E-03 g(S)=  0.000E+00 retain N=  3 mean eig= 1.31
 eig:   3.179  0.375  0.375
 bond charge predicted
       N       E                     dE             d eps       ncg     rms          rms(c)
DAV:   1    -0.854109253308E+03    0.63054E-03   -0.29691E-01  1680   0.676E-01    0.474E-02
DAV:   2    -0.854109450389E+03   -0.19708E-03   -0.23052E-03  2000   0.740E-02    0.232E-02
DAV:   3    -0.854109439660E+03    0.10729E-04   -0.30362E-05  1760   0.106E-02    0.142E-02
DAV:   4    -0.854109433407E+03    0.62530E-05   -0.23572E-05  1600   0.123E-02
  94 F= -.85410943E+03 E0= -.85410943E+03  d E =0.450914E-03  mag=     0.0000
 BRION: g(F)=  0.393E-03 g(S)=  0.000E+00 retain N=  1 mean eig= 0.24
 eig:   0.237
 bond charge predicted
       N       E                     dE             d eps       ncg     rms          rms(c)
DAV:   1    -0.854109640786E+03   -0.20113E-03   -0.13614E-01  1680   0.480E-01    0.338E-02
DAV:   2    -0.854109743946E+03   -0.10316E-03   -0.12732E-03  2048   0.565E-02    0.200E-02
DAV:   3    -0.854109734843E+03    0.91029E-05   -0.18453E-05  1600   0.970E-03
  95 F= -.85410973E+03 E0= -.85410973E+03  d E =-.301436E-03  mag=     0.0000
 BRION: g(F)=  0.782E-03 g(S)=  0.000E+00 retain N=  2 mean eig= 0.25
 eig:   0.201  0.294
 bond charge predicted
       N       E                     dE             d eps       ncg     rms          rms(c)
DAV:   1    -0.854109869523E+03   -0.12558E-03   -0.13765E-02  1680   0.176E-01    0.169E-02
DAV:   2    -0.854109884787E+03   -0.15264E-04   -0.25063E-04  2048   0.253E-02    0.118E-02
DAV:   3    -0.854109880384E+03    0.44029E-05   -0.56197E-06  1392   0.620E-03
  96 F= -.85410988E+03 E0= -.85410988E+03  d E =-.145541E-03  mag=    -0.0000
 BRION: g(F)=  0.332E-03 g(S)=  0.000E+00 retain N=  1 mean eig= 0.27
 eig:   0.273
 bond charge predicted
       N       E                     dE             d eps       ncg     rms          rms(c)
DAV:   1    -0.854110134563E+03   -0.24978E-03   -0.11761E-01  1680   0.415E-01    0.279E-02
DAV:   2    -0.854110207266E+03   -0.72703E-04   -0.83292E-04  2000   0.435E-02    0.131E-02
DAV:   3    -0.854110204272E+03    0.29942E-05   -0.97037E-06  1520   0.593E-03
  97 F= -.85411020E+03 E0= -.85411020E+03  d E =-.323888E-03  mag=    -0.0000
 BRION: g(F)=  0.354E-03 g(S)=  0.000E+00 retain N=  2 mean eig= 0.17
 eig:   0.319  0.015
 bond charge predicted
       N       E                     dE             d eps       ncg     rms          rms(c)
DAV:   1    -0.854110286583E+03   -0.79317E-04   -0.80305E-03  1728   0.111E-01    0.901E-03
DAV:   2    -0.854110291420E+03   -0.48371E-05   -0.60879E-05  1984   0.122E-02
  98 F= -.85411029E+03 E0= -.85411029E+03  d E =-.871480E-04  mag=     0.0000
 BRION: g(F)=  0.286E-03 g(S)=  0.000E+00 retain N=  3 mean eig= 1.71
 eig:   3.933  0.219  0.982
 bond charge predicted
       N       E                     dE             d eps       ncg     rms          rms(c)
DAV:   1    -0.854109667016E+03    0.61957E-03   -0.38101E+00  1680   0.238E+00    0.161E-01
DAV:   2    -0.854112169523E+03   -0.25025E-02   -0.28193E-02  1984   0.252E-01    0.755E-02
DAV:   3    -0.854112092296E+03    0.77227E-04   -0.32085E-04  2032   0.319E-02    0.468E-02
DAV:   4    -0.854112044377E+03    0.47919E-04   -0.25052E-04  1952   0.363E-02    0.155E-02
DAV:   5    -0.854112049025E+03   -0.46474E-05   -0.60000E-05  1872   0.142E-02
  99 F= -.85411205E+03 E0= -.85411205E+03  d E =-.175760E-02  mag=     0.0000
 BRION: g(F)=  0.929E-03 g(S)=  0.000E+00 retain N=  4 mean eig= 2.98
 eig:   7.600  0.229  0.229  3.864
 bond charge predicted
       N       E                     dE             d eps       ncg     rms          rms(c)
DAV:   1    -0.854111489400E+03    0.55498E-03   -0.36170E+00  1680   0.232E+00    0.159E-01
DAV:   2    -0.854113876632E+03   -0.23872E-02   -0.26865E-02  2000   0.246E-01    0.714E-02
DAV:   3    -0.854113803928E+03    0.72704E-04   -0.30360E-04  2064   0.311E-02    0.442E-02
DAV:   4    -0.854113765828E+03    0.38100E-04   -0.22913E-04  1888   0.361E-02    0.150E-02
DAV:   5    -0.854113774733E+03   -0.89048E-05   -0.59599E-05  1936   0.140E-02
 100 F= -.85411377E+03 E0= -.85411377E+03  d E =-.172571E-02  mag=    -0.0000
 BRION: g(F)=  0.923E-03 g(S)=  0.000E+00 retain N=  3 mean eig= 0.75
 eig:   0.368  0.934  0.934
 bond charge predicted
       N       E                     dE             d eps       ncg     rms          rms(c)
DAV:   1    -0.854103200358E+03    0.10565E-01   -0.11851E+01  1680   0.420E+00    0.278E-01
DAV:   2    -0.854111043170E+03   -0.78428E-02   -0.88077E-02  2000   0.451E-01    0.133E-01
DAV:   3    -0.854110809542E+03    0.23363E-03   -0.10158E-03  2064   0.596E-02    0.817E-02
DAV:   4    -0.854110658488E+03    0.15105E-03   -0.68958E-04  1952   0.593E-02    0.230E-02
DAV:   5    -0.854110668605E+03   -0.10117E-04   -0.16635E-04  2048   0.232E-02    0.235E-02
DAV:   6    -0.854110665737E+03    0.28677E-05   -0.37746E-05  1760   0.127E-02
 101 F= -.85411067E+03 E0= -.85411067E+03  d E =0.310900E-02  mag=    -0.0000
 BRION: g(F)=  0.448E-03 g(S)=  0.000E+00 retain N=  3 mean eig= 2.74
 eig:   7.232  0.307  0.694
 bond charge predicted
       N       E                     dE             d eps       ncg     rms          rms(c)
DAV:   1    -0.854110809967E+03   -0.14136E-03   -0.22322E-02  1728   0.183E-01    0.116E-02
DAV:   2    -0.854110824270E+03   -0.14302E-04   -0.15966E-04  2016   0.195E-02    0.744E-03
DAV:   3    -0.854110824508E+03   -0.23836E-06   -0.27945E-06  1360   0.318E-03
 102 F= -.85411082E+03 E0= -.85411082E+03  d E =-.158770E-03  mag=    -0.0000
 BRION: g(F)=  0.335E-03 g(S)=  0.000E+00 retain N=  3 mean eig= 0.31
 eig:   0.037  0.500  0.397
 bond charge predicted
       N       E                     dE             d eps       ncg     rms          rms(c)
DAV:   1    -0.854111193089E+03   -0.36882E-03   -0.46680E-01  1680   0.825E-01    0.548E-02
DAV:   2    -0.854111485786E+03   -0.29270E-03   -0.32952E-03  1984   0.855E-02    0.254E-02
DAV:   3    -0.854111477690E+03    0.80954E-05   -0.38024E-05  1824   0.106E-02
 103 F= -.85411148E+03 E0= -.85411148E+03  d E =-.653182E-03  mag=     0.0000
 BRION: g(F)=  0.348E-03 g(S)=  0.000E+00 retain N=  4 mean eig= 0.99
 eig:   2.809  0.057  0.548  0.548
 bond charge predicted
       N       E                     dE             d eps       ncg     rms          rms(c)
DAV:   1    -0.854111604739E+03   -0.11895E-03   -0.22675E-02  1744   0.179E-01    0.142E-02
DAV:   2    -0.854111615695E+03   -0.10955E-04   -0.13388E-04  2064   0.174E-02    0.634E-03
DAV:   3    -0.854111615335E+03    0.36001E-06   -0.39204E-06  1280   0.373E-03
 104 F= -.85411162E+03 E0= -.85411162E+03  d E =-.137645E-03  mag=     0.0000
 BRION: g(F)=  0.312E-03 g(S)=  0.000E+00 retain N=  4 mean eig= 2.78
 eig:   7.971  1.397  0.867  0.867
 bond charge predicted
       N       E                     dE             d eps       ncg     rms          rms(c)
DAV:   1    -0.854103309733E+03    0.83060E-02   -0.19243E+01  1680   0.532E+00    0.358E-01
DAV:   2    -0.854116024703E+03   -0.12715E-01   -0.14295E-01  1984   0.573E-01    0.166E-01
DAV:   3    -0.854115643457E+03    0.38125E-03   -0.16326E-03  2096   0.761E-02    0.102E-01
DAV:   4    -0.854115392638E+03    0.25082E-03   -0.11395E-03  2000   0.767E-02    0.310E-02
DAV:   5    -0.854115415200E+03   -0.22562E-04   -0.25993E-04  2000   0.291E-02    0.309E-02
DAV:   6    -0.854115427054E+03   -0.11854E-04   -0.80822E-05  1936   0.192E-02    0.139E-02
DAV:   7    -0.854115449945E+03   -0.22891E-04   -0.12838E-05  1520   0.724E-03    0.776E-03
DAV:   8    -0.854115480163E+03   -0.30218E-04   -0.54113E-06  1440   0.644E-03    0.353E-03
DAV:   9    -0.854115496947E+03   -0.16785E-04   -0.36396E-06  1440   0.407E-03    0.268E-03
DAV:  10    -0.854115513551E+03   -0.16604E-04   -0.23707E-06  1424   0.361E-03    0.190E-03
DAV:  11    -0.854115522682E+03   -0.91309E-05   -0.20997E-06  1408   0.219E-03
 105 F= -.85411552E+03 E0= -.85411552E+03  d E =-.390735E-02  mag=    -0.0000
 BRION: g(F)=  0.813E-03 g(S)=  0.000E+00 retain N=  3 mean eig= 1.30
 eig:   1.607  1.607  0.684
 bond charge predicted
       N       E                     dE             d eps       ncg     rms          rms(c)
DAV:   1    -0.854106327365E+03    0.91862E-02   -0.10177E+01  1680   0.386E+00    0.259E-01
DAV:   2    -0.854112988804E+03   -0.66614E-02   -0.74845E-02  1968   0.413E-01    0.120E-01
DAV:   3    -0.854112797813E+03    0.19099E-03   -0.87039E-04  2048   0.543E-02    0.739E-02
DAV:   4    -0.854112667014E+03    0.13080E-03   -0.56175E-04  1968   0.539E-02    0.218E-02
DAV:   5    -0.854112675312E+03   -0.82982E-05   -0.13565E-04  2064   0.213E-02    0.220E-02
DAV:   6    -0.854112674446E+03    0.86557E-06   -0.37141E-05  1696   0.130E-02
 106 F= -.85411267E+03 E0= -.85411267E+03  d E =0.284824E-02  mag=     0.0000
 BRION: g(F)=  0.591E-03 g(S)=  0.000E+00 retain N=  4 mean eig= 1.89
 eig:   5.394  0.724  0.724  0.727
 bond charge predicted
       N       E                     dE             d eps       ncg     rms          rms(c)
DAV:   1    -0.854110478176E+03    0.21971E-02   -0.75355E+00  1680   0.334E+00    0.222E-01
DAV:   2    -0.854115382582E+03   -0.49044E-02   -0.55238E-02  1968   0.354E-01    0.104E-01
DAV:   3    -0.854115244477E+03    0.13810E-03   -0.64127E-04  2048   0.450E-02    0.643E-02
DAV:   4    -0.854115151233E+03    0.93244E-04   -0.42881E-04  1968   0.480E-02    0.191E-02
DAV:   5    -0.854115156992E+03   -0.57599E-05   -0.10686E-04  2080   0.185E-02    0.197E-02
DAV:   6    -0.854115154377E+03    0.26150E-05   -0.25230E-05  1552   0.107E-02
 107 F= -.85411515E+03 E0= -.85411515E+03  d E =-.247993E-02  mag=     0.0000
 BRION: g(F)=  0.619E-03 g(S)=  0.000E+00 retain N=  4 mean eig= 1.38
 eig:   3.944  0.778  0.778  0.020
 bond charge predicted
       N       E                     dE             d eps       ncg     rms          rms(c)
DAV:   1    -0.854109534668E+03    0.56223E-02   -0.56958E+00  1680   0.290E+00    0.192E-01
[...]
 BRION: g(F)=  0.397E-04 g(S)=  0.000E+00 retain N=  2 mean eig= 0.17
 eig:   0.302  0.029
 bond charge predicted
       N       E                     dE             d eps       ncg     rms          rms(c)
DAV:   1    -0.854139038428E+03    0.10137E-04   -0.61676E-04  1600   0.380E-02    0.294E-03
DAV:   2    -0.854139039467E+03   -0.10392E-05   -0.11133E-05   928   0.541E-03
 463 F= -.85413904E+03 E0= -.85413904E+03  d E =0.831132E-05  mag=     0.0000
 BRION: g(F)=  0.431E-04 g(S)=  0.000E+00 retain N=  3 mean eig= 0.57
 eig:   0.367  0.679  0.679
 bond charge predicted
       N       E                     dE             d eps       ncg     rms          rms(c)
DAV:   1    -0.854139052283E+03   -0.13855E-04   -0.69324E-03  1680   0.133E-01    0.113E-02
DAV:   2    -0.854139062688E+03   -0.10406E-04   -0.11812E-04  2000   0.172E-02    0.558E-03
DAV:   3    -0.854139062181E+03    0.50756E-06   -0.12445E-06   944   0.236E-03
 464 F= -.85413906E+03 E0= -.85413906E+03  d E =-.227137E-04  mag=    -0.0000
 BRION: g(F)=  0.674E-04 g(S)=  0.000E+00 retain N=  4 mean eig= 0.63
 eig:   0.919  0.919  0.339  0.339
 bond charge predicted
       N       E                     dE             d eps       ncg     rms          rms(c)
DAV:   1    -0.854139081355E+03   -0.18667E-04   -0.20906E-02  1680   0.234E-01    0.193E-02
DAV:   2    -0.854139112267E+03   -0.30911E-04   -0.34969E-04  1920   0.292E-02    0.102E-02
DAV:   3    -0.854139110765E+03    0.15020E-05   -0.36892E-06  1136   0.393E-03
 465 F= -.85413911E+03 E0= -.85413911E+03  d E =-.485838E-04  mag=     0.0000
 BRION: g(F)=  0.548E-04 g(S)=  0.000E+00 retain N=  4 mean eig= 1.61
 eig:   3.842  1.679  0.559  0.369
 bond charge predicted
       N       E                     dE             d eps       ncg     rms          rms(c)
DAV:   1    -0.854139124073E+03   -0.11806E-04   -0.62876E-03  1680   0.134E-01    0.120E-02
DAV:   2    -0.854139133837E+03   -0.97646E-05   -0.11153E-04  2016   0.165E-02    0.602E-03
DAV:   3    -0.854139133401E+03    0.43587E-06   -0.13989E-06   944   0.236E-03
 466 F= -.85413913E+03 E0= -.85413913E+03  d E =-.226368E-04  mag=     0.0000
 BRION: g(F)=  0.548E-04 g(S)=  0.000E+00 retain N=  5 mean eig= 1.37
 eig:   3.813  1.784  0.606  0.317  0.317
 bond charge predicted
       N       E                     dE             d eps       ncg     rms          rms(c)
DAV:   1    -0.854139146169E+03   -0.12332E-04   -0.28326E-03  1664   0.887E-02    0.797E-03
DAV:   2    -0.854139150478E+03   -0.43093E-05   -0.50036E-05  1728   0.112E-02
 467 F= -.85413915E+03 E0= -.85413915E+03  d E =-.170767E-04  mag=    -0.0000
 BRION: g(F)=  0.475E-04 g(S)=  0.000E+00 retain N=  6 mean eig= 2.15
 eig:   5.143  5.143  0.829  0.829  0.654  0.283
 bond charge predicted
       N       E                     dE             d eps       ncg     rms          rms(c)
DAV:   1    -0.854139120306E+03    0.25863E-04   -0.75878E-02  1680   0.460E-01    0.384E-02
DAV:   2    -0.854139245283E+03   -0.12498E-03   -0.13982E-03  1872   0.581E-02    0.213E-02
DAV:   3    -0.854139239512E+03    0.57709E-05   -0.14181E-05  1392   0.746E-03
 468 F= -.85413924E+03 E0= -.85413924E+03  d E =-.890341E-04  mag=     0.0000
 BRION: g(F)=  0.559E-04 g(S)=  0.000E+00 retain N=  2 mean eig= 1.75
 eig:   0.513  2.990
 bond charge predicted
       N       E                     dE             d eps       ncg     rms          rms(c)
DAV:   1    -0.854139010097E+03    0.23519E-03   -0.78065E-02  1680   0.477E-01    0.382E-02
DAV:   2    -0.854139158828E+03   -0.14873E-03   -0.16748E-03  1968   0.643E-02    0.239E-02
DAV:   3    -0.854139150064E+03    0.87647E-05   -0.17196E-05  1472   0.907E-03
 469 F= -.85413915E+03 E0= -.85413915E+03  d E =0.894486E-04  mag=    -0.0000
 BRION: g(F)=  0.157E-03 g(S)=  0.000E+00 retain N=  3 mean eig= 1.26
 eig:   2.990  0.518  0.277
 bond charge predicted
       N       E                     dE             d eps       ncg     rms          rms(c)
DAV:   1    -0.854139118569E+03    0.40259E-04   -0.11273E-02  1680   0.180E-01    0.174E-02
DAV:   2    -0.854139134695E+03   -0.16126E-04   -0.21600E-04  2016   0.236E-02    0.974E-03
DAV:   3    -0.854139132686E+03    0.20091E-05   -0.47904E-06  1120   0.503E-03
 470 F= -.85413913E+03 E0= -.85413913E+03  d E =0.173773E-04  mag=     0.0000
 BRION: g(F)=  0.451E-04 g(S)=  0.000E+00 retain N=  1 mean eig= 0.30
 eig:   0.298
 bond charge predicted
       N       E                     dE             d eps       ncg     rms          rms(c)
DAV:   1    -0.854139136316E+03   -0.16202E-05   -0.11591E-02  1680   0.168E-01    0.139E-02
DAV:   2    -0.854139152312E+03   -0.15997E-04   -0.20377E-04  2064   0.230E-02    0.904E-03
DAV:   3    -0.854139150222E+03    0.20907E-05   -0.29047E-06  1104   0.415E-03
 471 F= -.85413915E+03 E0= -.85413915E+03  d E =-.175353E-04  mag=    -0.0000
 BRION: g(F)=  0.135E-03 g(S)=  0.000E+00 retain N=  2 mean eig= 0.25
 eig:   0.273  0.236
 bond charge predicted
       N       E                     dE             d eps       ncg     rms          rms(c)
DAV:   1    -0.854139170510E+03   -0.18197E-04   -0.19730E-03  1648   0.720E-02    0.806E-03
DAV:   2    -0.854139174032E+03   -0.35225E-05   -0.54347E-05  1792   0.114E-02
 472 F= -.85413917E+03 E0= -.85413917E+03  d E =-.238107E-04  mag=    -0.0000
 BRION: g(F)=  0.337E-04 g(S)=  0.000E+00 retain N=  1 mean eig= 0.29
 eig:   0.287
 bond charge predicted
       N       E                     dE             d eps       ncg     rms          rms(c)
DAV:   1    -0.854139189264E+03   -0.18754E-04   -0.95414E-03  1680   0.150E-01    0.133E-02
DAV:   2    -0.854139200231E+03   -0.10967E-04   -0.14426E-04  2064   0.195E-02    0.766E-03
DAV:   3    -0.854139198978E+03    0.12530E-05   -0.28932E-06  1024   0.406E-03
 473 F= -.85413920E+03 E0= -.85413920E+03  d E =-.249454E-04  mag=    -0.0000
 BRION: g(F)=  0.633E-04 g(S)=  0.000E+00 retain N=  2 mean eig= 0.24
 eig:   0.338  0.140
 bond charge predicted
       N       E                     dE             d eps       ncg     rms          rms(c)
DAV:   1    -0.854139209964E+03   -0.97334E-05   -0.93469E-04  1648   0.496E-02    0.531E-03
DAV:   2    -0.854139211230E+03   -0.12658E-05   -0.20095E-05  1296   0.733E-03
 474 F= -.85413921E+03 E0= -.85413921E+03  d E =-.122522E-04  mag=     0.0000
 BRION: g(F)=  0.319E-04 g(S)=  0.000E+00 retain N=  1 mean eig= 0.31
 eig:   0.308
 bond charge predicted
       N       E                     dE             d eps       ncg     rms          rms(c)
DAV:   1    -0.854139230315E+03   -0.20351E-04   -0.96779E-03  1680   0.150E-01    0.125E-02
DAV:   2    -0.854139241808E+03   -0.11493E-04   -0.13706E-04  2016   0.185E-02    0.697E-03
DAV:   3    -0.854139240960E+03    0.84772E-06   -0.17948E-06   960   0.311E-03
 475 F= -.85413924E+03 E0= -.85413924E+03  d E =-.297302E-04  mag=     0.0000
 BRION: g(F)=  0.402E-04 g(S)=  0.000E+00 retain N=  2 mean eig= 0.26
 eig:   0.388  0.135
 bond charge predicted
       N       E                     dE             d eps       ncg     rms          rms(c)
DAV:   1    -0.854139248485E+03   -0.66775E-05   -0.55468E-04  1584   0.359E-02    0.395E-03
DAV:   2    -0.854139249061E+03   -0.57522E-06   -0.83022E-06   976   0.478E-03
 476 F= -.85413925E+03 E0= -.85413925E+03  d E =-.810045E-05  mag=     0.0000
 BRION: g(F)=  0.302E-04 g(S)=  0.000E+00 retain N=  2 mean eig= 0.79
 eig:   0.117  1.456
 bond charge predicted
       N       E                     dE             d eps       ncg     rms          rms(c)
DAV:   1    -0.854139262711E+03   -0.14226E-04   -0.26158E-03  1648   0.775E-02    0.666E-03
DAV:   2    -0.854139265864E+03   -0.31529E-05   -0.36732E-05  1536   0.956E-03
 477 F= -.85413927E+03 E0= -.85413927E+03  d E =-.168034E-04  mag=     0.0000
 BRION: g(F)=  0.276E-04 g(S)=  0.000E+00 retain N=  2 mean eig= 0.47
 eig:   0.470  0.470
 bond charge predicted
       N       E                     dE             d eps       ncg     rms          rms(c)
DAV:   1    -0.854139286332E+03   -0.23621E-04   -0.95300E-03  1680   0.149E-01    0.123E-02
DAV:   2    -0.854139297624E+03   -0.11293E-04   -0.13076E-04  1984   0.179E-02    0.701E-03
DAV:   3    -0.854139296890E+03    0.73417E-06   -0.14354E-06   928   0.250E-03
 478 F= -.85413930E+03 E0= -.85413930E+03  d E =-.310262E-04  mag=     0.0000
 BRION: g(F)=  0.328E-04 g(S)=  0.000E+00 retain N=  1 mean eig= 0.33
 eig:   0.328
 bond charge predicted
       N       E                     dE             d eps       ncg     rms          rms(c)
DAV:   1    -0.854139289489E+03    0.81358E-05   -0.41391E-04  1600   0.328E-02    0.350E-03
DAV:   2    -0.854139290296E+03   -0.80770E-06   -0.11460E-05  1104   0.538E-03
 479 F= -.85413929E+03 E0= -.85413929E+03  d E =0.659393E-05  mag=     0.0000
 BRION: g(F)=  0.506E-04 g(S)=  0.000E+00 retain N=  2 mean eig= 0.36
 eig:   0.565  0.156
 bond charge predicted
       N       E                     dE             d eps       ncg     rms          rms(c)
DAV:   1    -0.854139279665E+03    0.98241E-05   -0.12881E-03  1632   0.563E-02    0.466E-03
DAV:   2    -0.854139281580E+03   -0.19153E-05   -0.22022E-05  1232   0.746E-03
 480 F= -.85413928E+03 E0= -.85413928E+03  d E =0.871645E-05  mag=     0.0000
 BRION: g(F)=  0.399E-04 g(S)=  0.000E+00 retain N=  1 mean eig= 0.26
 eig:   0.265
 bond charge predicted
       N       E                     dE             d eps       ncg     rms          rms(c)
DAV:   1    -0.854139294407E+03   -0.14742E-04   -0.11294E-02  1680   0.160E-01    0.137E-02
DAV:   2    -0.854139308915E+03   -0.14508E-04   -0.17302E-04  2032   0.211E-02    0.721E-03
DAV:   3    -0.854139307920E+03    0.99431E-06   -0.24535E-06   960   0.361E-03
 481 F= -.85413931E+03 E0= -.85413931E+03  d E =-.263403E-04  mag=     0.0000
 BRION: g(F)=  0.821E-04 g(S)=  0.000E+00 retain N=  2 mean eig= 0.28
 eig:   0.283  0.283
 bond charge predicted
       N       E                     dE             d eps       ncg     rms          rms(c)
DAV:   1    -0.854139322482E+03   -0.13568E-04   -0.18040E-03  1664   0.701E-02    0.700E-03
DAV:   2    -0.854139325180E+03   -0.26977E-05   -0.40062E-05  1456   0.103E-02
 482 F= -.85413933E+03 E0= -.85413933E+03  d E =-.172598E-04  mag=     0.0000
 BRION: g(F)=  0.302E-04 g(S)=  0.000E+00 retain N=  1 mean eig= 0.30
 eig:   0.297
 bond charge predicted
       N       E                     dE             d eps       ncg     rms          rms(c)
DAV:   1    -0.854139343229E+03   -0.20747E-04   -0.87732E-03  1680   0.143E-01    0.120E-02
DAV:   2    -0.854139353586E+03   -0.10357E-04   -0.12421E-04  1984   0.175E-02    0.677E-03
DAV:   3    -0.854139352812E+03    0.77368E-06   -0.15081E-06   928   0.267E-03
 483 F= -.85413935E+03 E0= -.85413935E+03  d E =-.276321E-04  mag=    -0.0000
 BRION: g(F)=  0.411E-04 g(S)=  0.000E+00 retain N=  2 mean eig= 0.21
 eig:   0.283  0.135
 bond charge predicted
       N       E                     dE             d eps       ncg     rms          rms(c)
DAV:   1    -0.854139359799E+03   -0.62133E-05   -0.48912E-04  1584   0.339E-02    0.378E-03
DAV:   2    -0.854139360261E+03   -0.46228E-06   -0.74694E-06   992   0.452E-03
 484 F= -.85413936E+03 E0= -.85413936E+03  d E =-.744923E-05  mag=    -0.0000
 BRION: g(F)=  0.293E-04 g(S)=  0.000E+00 retain N=  2 mean eig= 3.62
 eig:   0.081  7.156
 bond charge predicted
       N       E                     dE             d eps       ncg     rms          rms(c)
DAV:   1    -0.854139376397E+03   -0.16598E-04   -0.49840E-03  1664   0.106E-01    0.889E-03
DAV:   2    -0.854139382406E+03   -0.60091E-05   -0.68916E-05  1728   0.130E-02
 485 F= -.85413938E+03 E0= -.85413938E+03  d E =-.221448E-04  mag=    -0.0000
 BRION: g(F)=  0.275E-04 g(S)=  0.000E+00 retain N=  2 mean eig= 0.45
 eig:   0.449  0.449
 bond charge predicted
       N       E                     dE             d eps       ncg     rms          rms(c)
DAV:   1    -0.854139398117E+03   -0.21720E-04   -0.47234E-03  1680   0.107E-01    0.938E-03
DAV:   2    -0.854139403549E+03   -0.54316E-05   -0.67406E-05  1808   0.131E-02
 486 F= -.85413940E+03 E0= -.85413940E+03  d E =-.211424E-04  mag=    -0.0000
 BRION: g(F)=  0.262E-04 g(S)=  0.000E+00 retain N=  1 mean eig= 0.31
 eig:   0.314
 bond charge predicted
       N       E                     dE             d eps       ncg     rms          rms(c)
DAV:   1    -0.854139416050E+03   -0.17934E-04   -0.27781E-03  1648   0.807E-02    0.807E-03
DAV:   2    -0.854139418817E+03   -0.27668E-05   -0.39145E-05  1744   0.100E-02
 487 F= -.85413942E+03 E0= -.85413942E+03  d E =-.152687E-04  mag=     0.0000
 BRION: g(F)=  0.328E-04 g(S)=  0.000E+00 retain N=  2 mean eig= 0.24
 eig:   0.272  0.217
 bond charge predicted
       N       E                     dE             d eps       ncg     rms          rms(c)
DAV:   1    -0.854139425581E+03   -0.95304E-05   -0.49649E-04  1600   0.342E-02    0.448E-03
DAV:   2    -0.854139426101E+03   -0.51988E-06   -0.76375E-06   992   0.448E-03
 488 F= -.85413943E+03 E0= -.85413943E+03  d E =-.728347E-05  mag=    -0.0000
 BRION: g(F)=  0.273E-04 g(S)=  0.000E+00 retain N=  2 mean eig= 2.37
 eig:   0.353  4.381
 bond charge predicted
       N       E                     dE             d eps       ncg     rms          rms(c)
DAV:   1    -0.854139424940E+03    0.64041E-06   -0.18874E-04  1584   0.233E-02    0.321E-03
DAV:   2    -0.854139425220E+03   -0.27928E-06   -0.55209E-06   912   0.408E-03
 489 F= -.85413943E+03 E0= -.85413943E+03  d E =0.881009E-06  mag=     0.0000
 BRION: g(F)=  0.448E-04 g(S)=  0.000E+00 retain N=  2 mean eig= 0.20
 eig:   0.204  0.192
 bond charge predicted
       N       E                     dE             d eps       ncg     rms          rms(c)
DAV:   1    -0.854139444355E+03   -0.19414E-04   -0.71745E-03  1680   0.130E-01    0.106E-02
DAV:   2    -0.854139453604E+03   -0.92490E-05   -0.10509E-04  1888   0.162E-02    0.566E-03
DAV:   3    -0.854139453103E+03    0.50063E-06   -0.11180E-06   928   0.222E-03
 490 F= -.85413945E+03 E0= -.85413945E+03  d E =-.278835E-04  mag=     0.0000
 BRION: g(F)=  0.352E-04 g(S)=  0.000E+00 retain N=  2 mean eig= 0.87
 eig:   0.265  1.474
 bond charge predicted
       N       E                     dE             d eps       ncg     rms          rms(c)
DAV:   1    -0.854139456488E+03   -0.28841E-05   -0.13335E-04  1584   0.174E-02    0.238E-03
DAV:   2    -0.854139456593E+03   -0.10524E-06   -0.17075E-06   888   0.221E-03
 491 F= -.85413946E+03 E0= -.85413946E+03  d E =-.348996E-05  mag=     0.0000
 BRION: g(F)=  0.299E-04 g(S)=  0.000E+00 retain N=  2 mean eig= 0.41
 eig:   0.409  0.409
 bond charge predicted
       N       E                     dE             d eps       ncg     rms          rms(c)
DAV:   1    -0.854139477102E+03   -0.20614E-04   -0.13023E-02  1680   0.171E-01    0.136E-02
DAV:   2    -0.854139492800E+03   -0.15698E-04   -0.17569E-04  1968   0.206E-02    0.704E-03
DAV:   3    -0.854139492167E+03    0.63314E-06   -0.17402E-06   944   0.269E-03
 492 F= -.85413949E+03 E0= -.85413949E+03  d E =-.355737E-04  mag=     0.0000
 BRION: g(F)=  0.354E-04 g(S)=  0.000E+00 retain N=  3 mean eig= 0.67
 eig:   0.402  0.402  1.205
 bond charge predicted
       N       E                     dE             d eps       ncg     rms          rms(c)
DAV:   1    -0.854139502064E+03   -0.92638E-05   -0.12725E-03  1600   0.533E-02    0.505E-03
DAV:   2    -0.854139503248E+03   -0.11842E-05   -0.14419E-05  1072   0.618E-03
 493 F= -.85413950E+03 E0= -.85413950E+03  d E =-.110811E-04  mag=     0.0000
 BRION: g(F)=  0.300E-04 g(S)=  0.000E+00 retain N=  4 mean eig= 1.52
 eig:   2.508  2.508  0.524  0.524
 bond charge predicted
       N       E                     dE             d eps       ncg     rms          rms(c)
DAV:   1    -0.854139197870E+03    0.30419E-03   -0.42388E-01  1680   0.989E-01    0.776E-02
DAV:   2    -0.854139727568E+03   -0.52970E-03   -0.59082E-03  1888   0.119E-01    0.399E-02
DAV:   3    -0.854139710771E+03    0.16797E-04   -0.65046E-05  1840   0.150E-02    0.251E-02
DAV:   4    -0.854139697717E+03    0.13054E-04   -0.67161E-05  1904   0.196E-02    0.753E-03
DAV:   5    -0.854139698842E+03   -0.11247E-05   -0.18071E-05  1392   0.755E-03
 494 F= -.85413970E+03 E0= -.85413970E+03  d E =-.195594E-03  mag=    -0.0000
 BRION: g(F)=  0.564E-04 g(S)=  0.000E+00 retain N=  5 mean eig= 2.49
 eig:   5.428  5.428  0.542  0.542  0.499
 bond charge predicted
       N       E                     dE             d eps       ncg     rms          rms(c)
DAV:   1    -0.854139433698E+03    0.26402E-03   -0.37232E-01  1680   0.926E-01    0.741E-02
DAV:   2    -0.854139901889E+03   -0.46819E-03   -0.52108E-03  1872   0.112E-01    0.362E-02
DAV:   3    -0.854139888393E+03    0.13496E-04   -0.57253E-05  1776   0.142E-02    0.228E-02
DAV:   4    -0.854139878666E+03    0.97267E-05   -0.60798E-05  1872   0.186E-02
 495 F= -.85413988E+03 E0= -.85413988E+03  d E =-.179824E-03  mag=    -0.0000
 BRION: g(F)=  0.188E-04 g(S)=  0.000E+00 retain N=  5 mean eig= 3.36
 eig:   7.087  7.087  0.501  1.056  1.056
 bond charge predicted
       N       E                     dE             d eps       ncg     rms          rms(c)
DAV:   1    -0.854139851164E+03    0.37229E-04   -0.56508E-03  1680   0.128E-01    0.995E-03
DAV:   2    -0.854139860777E+03   -0.96131E-05   -0.11703E-04  1984   0.178E-02    0.779E-03
DAV:   3    -0.854139860167E+03    0.61010E-06   -0.20601E-06  1056   0.280E-03
 496 F= -.85413986E+03 E0= -.85413986E+03  d E =0.184994E-04  mag=    -0.0000
 BRION: g(F)=  0.387E-04 g(S)=  0.000E+00 retain N=  6 mean eig= 3.19
 eig:   5.610  5.610  5.226  1.101  1.101  0.520
 bond charge predicted
       N       E                     dE             d eps       ncg     rms          rms(c)
DAV:   1    -0.854139253027E+03    0.60775E-03   -0.72211E-01  1680   0.128E+00    0.995E-02
DAV:   2    -0.854140142168E+03   -0.88914E-03   -0.98831E-03  1856   0.154E-01    0.500E-02
DAV:   3    -0.854140116921E+03    0.25247E-04   -0.11012E-04  1888   0.191E-02    0.315E-02
DAV:   4    -0.854140096137E+03    0.20784E-04   -0.98848E-05  1936   0.239E-02    0.918E-03
DAV:   5    -0.854140098155E+03   -0.20175E-05   -0.27514E-05  1584   0.920E-03
 497 F= -.85414010E+03 E0= -.85414010E+03  d E =-.237988E-03  mag=    -0.0000
 BRION: g(F)=  0.250E-04 g(S)=  0.000E+00 retain N=  1 mean eig= 1.74
 eig:   1.740
 bond charge predicted
       N       E                     dE             d eps       ncg     rms          rms(c)
DAV:   1    -0.854140085627E+03    0.10510E-04   -0.14358E-03  1712   0.617E-02    0.709E-03
DAV:   2    -0.854140087852E+03   -0.22247E-05   -0.35482E-05  1792   0.968E-03
 498 F= -.85414009E+03 E0= -.85414009E+03  d E =0.103031E-04  mag=    -0.0000
 BRION: g(F)=  0.703E-04 g(S)=  0.000E+00 retain N=  2 mean eig= 0.94
 eig:   1.740  0.147
 bond charge predicted
       N       E                     dE             d eps       ncg     rms          rms(c)
DAV:   1    -0.854140106702E+03   -0.21075E-04   -0.17605E-02  1680   0.201E-01    0.166E-02
DAV:   2    -0.854140130241E+03   -0.23538E-04   -0.25683E-04  1936   0.251E-02    0.769E-03
DAV:   3    -0.854140129662E+03    0.57914E-06   -0.23443E-06  1168   0.316E-03
 499 F= -.85414013E+03 E0= -.85414013E+03  d E =-.418099E-04  mag=     0.0000
 BRION: g(F)=  0.269E-04 g(S)=  0.000E+00 retain N=  2 mean eig= 3.21
 eig:   0.249  6.162
 bond charge predicted
       N       E                     dE             d eps       ncg     rms          rms(c)
DAV:   1    -0.854140113950E+03    0.16291E-04   -0.22957E-03  1648   0.733E-02    0.542E-03
DAV:   2    -0.854140117515E+03   -0.35657E-05   -0.37236E-05  1872   0.957E-03
 500 F= -.85414012E+03 E0= -.85414012E+03  d E =0.121461E-04  mag=     0.0000
 BRION: g(F)=  0.293E-04 g(S)=  0.000E+00 retain N=  3 mean eig= 3.04
 eig:   6.662  0.280  2.171
--------------------------------------------------------
>>>  Job finished at Wed May  4 06:41:19 EDT 2022
