    3    3    1    2
  0.7971799E+03  0.1367500E-08  0.1367500E-08  0.1476700E-08  0.5000000E-15
  1.000000000000000E-004
  CAR 
 SiO2                                    
     16      1     16
 
  0.0000000E+00  0.0000000E+00  0.0000000E+00  0.1000000E+01
    1      -31.261952    -31.261952   1.000000   1.000000
    2      -22.597794    -22.597794   1.000000   1.000000
    3      -14.974657    -14.974657   1.000000   1.000000
    4      -12.834892    -12.834892   1.000000   1.000000
    5      -12.834764    -12.834764   1.000000   1.000000
    6      -12.814185    -12.814185   1.000000   1.000000
    7       -8.204402     -8.204402   1.000000   1.000000
    8       -8.204363     -8.204363   1.000000   1.000000
    9       -1.325488     -1.325487   0.000000   0.000000
   10       -1.325390     -1.325390   0.000000   0.000000
   11       -0.409923     -0.409861   0.000000   0.000000
   12        0.352438      0.352184   0.000000   0.000000
   13        0.510771      0.510776   0.000000   0.000000
   14        0.669721      0.669767   0.000000   0.000000
   15        0.830180      0.830282   0.000000   0.000000
   16        0.833771      0.833849   0.000000   0.000000
