PROCAR lm decomposed
# of k-points:    1         # of bands:   16         # of ions:    3

 k-point     1 :    0.00000000 0.00000000 0.00000000     weight = 1.00000000

band     1 # energy  -31.26195229 # occ.  1.00000000
 
ion      s     py     pz     px    dxy    dyz    dz2    dxz  x2-y2    tot
    1  0.643  0.000  0.081  0.008  0.000  0.000  0.000  0.000  0.000  0.733
    2  0.001  0.000  0.001  0.000  0.000  0.000  0.000  0.000  0.000  0.002
    3  0.169  0.000  0.093  0.010  0.000  0.000  0.000  0.000  0.000  0.272
tot    0.814  0.001  0.175  0.018  0.000  0.000  0.000  0.000  0.000  1.008
 
band     2 # energy  -22.59779394 # occ.  1.00000000
 
ion      s     py     pz     px    dxy    dyz    dz2    dxz  x2-y2    tot
    1  0.025  0.000  0.000  0.000  0.000  0.000  0.000  0.000  0.000  0.025
    2  0.457  0.000  0.057  0.006  0.000  0.000  0.000  0.000  0.000  0.520
    3  0.133  0.001  0.101  0.010  0.000  0.000  0.000  0.000  0.000  0.246
tot    0.615  0.001  0.159  0.016  0.000  0.000  0.000  0.000  0.000  0.791
 
band     3 # energy  -14.97465653 # occ.  1.00000000
 
ion      s     py     pz     px    dxy    dyz    dz2    dxz  x2-y2    tot
    1  0.140  0.002  0.348  0.036  0.000  0.000  0.000  0.000  0.000  0.526
    2  0.087  0.000  0.027  0.003  0.000  0.000  0.000  0.000  0.000  0.117
    3  0.141  0.000  0.024  0.002  0.000  0.000  0.000  0.000  0.000  0.168
tot    0.369  0.002  0.399  0.041  0.000  0.000  0.000  0.000  0.000  0.811
 
band     4 # energy  -12.83489242 # occ.  1.00000000
 
ion      s     py     pz     px    dxy    dyz    dz2    dxz  x2-y2    tot
    1  0.000  0.353  0.001  0.062  0.000  0.000  0.000  0.000  0.000  0.417
    2  0.000  0.031  0.000  0.006  0.000  0.000  0.000  0.000  0.000  0.037
    3  0.000  0.170  0.001  0.030  0.000  0.000  0.000  0.000  0.000  0.200
tot    0.000  0.554  0.002  0.098  0.000  0.000  0.000  0.000  0.000  0.655
 
band     5 # energy  -12.83476391 # occ.  1.00000000
 
ion      s     py     pz     px    dxy    dyz    dz2    dxz  x2-y2    tot
    1  0.000  0.062  0.039  0.317  0.000  0.000  0.000  0.000  0.000  0.417
    2  0.000  0.005  0.003  0.028  0.000  0.000  0.000  0.000  0.000  0.037
    3  0.000  0.030  0.019  0.152  0.000  0.000  0.000  0.000  0.000  0.200
tot    0.000  0.097  0.061  0.496  0.000  0.000  0.000  0.000  0.000  0.655
 
band     6 # energy  -12.81418487 # occ.  1.00000000
 
ion      s     py     pz     px    dxy    dyz    dz2    dxz  x2-y2    tot
    1  0.011  0.001  0.136  0.014  0.000  0.000  0.000  0.000  0.000  0.161
    2  0.131  0.001  0.242  0.025  0.000  0.000  0.000  0.000  0.000  0.400
    3  0.025  0.001  0.139  0.014  0.000  0.000  0.000  0.000  0.000  0.179
tot    0.167  0.003  0.517  0.053  0.000  0.000  0.000  0.000  0.000  0.739
 
band     7 # energy   -8.20440217 # occ.  1.00000000
 
ion      s     py     pz     px    dxy    dyz    dz2    dxz  x2-y2    tot
    1  0.000  0.157  0.000  0.001  0.000  0.000  0.000  0.000  0.000  0.158
    2  0.000  0.385  0.001  0.002  0.000  0.000  0.000  0.000  0.000  0.387
    3  0.000  0.015  0.000  0.000  0.000  0.000  0.000  0.000  0.000  0.016
tot    0.000  0.557  0.001  0.003  0.000  0.000  0.000  0.000  0.000  0.561
 
band     8 # energy   -8.20436332 # occ.  1.00000000
 
ion      s     py     pz     px    dxy    dyz    dz2    dxz  x2-y2    tot
    1  0.000  0.000  0.015  0.143  0.000  0.000  0.000  0.000  0.000  0.158
    2  0.000  0.001  0.037  0.350  0.000  0.000  0.000  0.000  0.000  0.387
    3  0.000  0.000  0.001  0.014  0.000  0.000  0.000  0.000  0.000  0.016
tot    0.000  0.001  0.053  0.506  0.000  0.000  0.000  0.000  0.000  0.561
 
band     9 # energy   -1.32548799 # occ.  0.00000000
 
ion      s     py     pz     px    dxy    dyz    dz2    dxz  x2-y2    tot
    1  0.000  0.147  0.001  0.000  0.000  0.000  0.000  0.000  0.000  0.148
    2  0.000  0.083  0.001  0.000  0.000  0.000  0.000  0.000  0.000  0.084
    3  0.000  0.252  0.002  0.000  0.000  0.000  0.000  0.000  0.000  0.255
tot    0.000  0.482  0.003  0.001  0.000  0.000  0.000  0.000  0.000  0.487
 
band    10 # energy   -1.32539031 # occ.  0.00000000
 
ion      s     py     pz     px    dxy    dyz    dz2    dxz  x2-y2    tot
    1  0.000  0.001  0.013  0.134  0.000  0.000  0.000  0.000  0.000  0.148
    2  0.000  0.000  0.008  0.076  0.000  0.000  0.000  0.000  0.000  0.084
    3  0.000  0.001  0.023  0.231  0.000  0.000  0.000  0.000  0.000  0.255
tot    0.000  0.002  0.044  0.441  0.000  0.000  0.000  0.000  0.000  0.487
 
band    11 # energy   -0.40992331 # occ.  0.00000000
 
ion      s     py     pz     px    dxy    dyz    dz2    dxz  x2-y2    tot
    1  0.008  0.000  0.003  0.000  0.000  0.000  0.000  0.000  0.000  0.011
    2  0.023  0.000  0.006  0.001  0.000  0.000  0.000  0.000  0.000  0.030
    3  0.003  0.000  0.000  0.000  0.000  0.000  0.000  0.000  0.000  0.003
tot    0.033  0.000  0.009  0.001  0.000  0.000  0.000  0.000  0.000  0.044
 
band    12 # energy    0.35243795 # occ.  0.00000000
 
ion      s     py     pz     px    dxy    dyz    dz2    dxz  x2-y2    tot
    1  0.005  0.000  0.001  0.000  0.000  0.000  0.000  0.000  0.000  0.006
    2  0.005  0.000  0.004  0.000  0.000  0.000  0.000  0.000  0.000  0.009
    3  0.000  0.000  0.001  0.000  0.000  0.000  0.000  0.000  0.000  0.001
tot    0.010  0.000  0.006  0.000  0.000  0.000  0.000  0.000  0.000  0.016
 
band    13 # energy    0.51077136 # occ.  0.00000000
 
ion      s     py     pz     px    dxy    dyz    dz2    dxz  x2-y2    tot
    1  0.000  0.000  0.006  0.000  0.000  0.000  0.000  0.000  0.000  0.007
    2  0.016  0.000  0.006  0.001  0.000  0.000  0.000  0.000  0.000  0.023
    3  0.015  0.000  0.007  0.001  0.000  0.000  0.000  0.000  0.000  0.023
tot    0.031  0.000  0.019  0.002  0.000  0.000  0.000  0.000  0.000  0.053
 
band    14 # energy    0.66972134 # occ.  0.00000000
 
ion      s     py     pz     px    dxy    dyz    dz2    dxz  x2-y2    tot
    1  0.004  0.000  0.001  0.001  0.000  0.000  0.000  0.000  0.000  0.006
    2  0.003  0.000  0.018  0.000  0.000  0.000  0.000  0.000  0.000  0.021
    3  0.013  0.000  0.003  0.000  0.000  0.000  0.000  0.000  0.000  0.016
tot    0.021  0.000  0.022  0.001  0.000  0.000  0.000  0.000  0.000  0.044
 
band    15 # energy    0.83017996 # occ.  0.00000000
 
ion      s     py     pz     px    dxy    dyz    dz2    dxz  x2-y2    tot
    1  0.001  0.000  0.001  0.004  0.000  0.000  0.000  0.000  0.000  0.006
    2  0.000  0.001  0.000  0.017  0.000  0.000  0.000  0.000  0.000  0.018
    3  0.000  0.000  0.000  0.000  0.000  0.000  0.000  0.000  0.000  0.001
tot    0.001  0.001  0.001  0.022  0.000  0.000  0.000  0.000  0.000  0.025
 
band    16 # energy    0.83377094 # occ.  0.00000000
 
ion      s     py     pz     px    dxy    dyz    dz2    dxz  x2-y2    tot
    1  0.000  0.006  0.000  0.000  0.000  0.000  0.000  0.000  0.000  0.006
    2  0.000  0.017  0.000  0.001  0.000  0.000  0.000  0.000  0.000  0.019
    3  0.000  0.000  0.000  0.000  0.000  0.000  0.000  0.000  0.000  0.000
tot    0.000  0.024  0.000  0.001  0.000  0.000  0.000  0.000  0.000  0.025
 
# of k-points:    1         # of bands:   16         # of ions:    3

 k-point     1 :    0.00000000 0.00000000 0.00000000     weight = 1.00000000

band     1 # energy  -31.26195232 # occ.  1.00000000
 
ion      s     py     pz     px    dxy    dyz    dz2    dxz  x2-y2    tot
    1  0.643  0.000  0.081  0.008  0.000  0.000  0.000  0.000  0.000  0.733
    2  0.001  0.000  0.001  0.000  0.000  0.000  0.000  0.000  0.000  0.002
    3  0.169  0.000  0.093  0.010  0.000  0.000  0.000  0.000  0.000  0.272
tot    0.814  0.001  0.175  0.018  0.000  0.000  0.000  0.000  0.000  1.008
 
band     2 # energy  -22.59779404 # occ.  1.00000000
 
ion      s     py     pz     px    dxy    dyz    dz2    dxz  x2-y2    tot
    1  0.025  0.000  0.000  0.000  0.000  0.000  0.000  0.000  0.000  0.025
    2  0.457  0.000  0.057  0.006  0.000  0.000  0.000  0.000  0.000  0.520
    3  0.133  0.001  0.101  0.010  0.000  0.000  0.000  0.000  0.000  0.246
tot    0.615  0.001  0.159  0.016  0.000  0.000  0.000  0.000  0.000  0.791
 
band     3 # energy  -14.97465652 # occ.  1.00000000
 
ion      s     py     pz     px    dxy    dyz    dz2    dxz  x2-y2    tot
    1  0.140  0.002  0.348  0.036  0.000  0.000  0.000  0.000  0.000  0.526
    2  0.087  0.000  0.027  0.003  0.000  0.000  0.000  0.000  0.000  0.117
    3  0.141  0.000  0.024  0.002  0.000  0.000  0.000  0.000  0.000  0.168
tot    0.369  0.002  0.399  0.041  0.000  0.000  0.000  0.000  0.000  0.811
 
band     4 # energy  -12.83489247 # occ.  1.00000000
 
ion      s     py     pz     px    dxy    dyz    dz2    dxz  x2-y2    tot
    1  0.000  0.353  0.001  0.062  0.000  0.000  0.000  0.000  0.000  0.417
    2  0.000  0.031  0.000  0.006  0.000  0.000  0.000  0.000  0.000  0.037
    3  0.000  0.170  0.001  0.030  0.000  0.000  0.000  0.000  0.000  0.200
tot    0.000  0.554  0.002  0.098  0.000  0.000  0.000  0.000  0.000  0.655
 
band     5 # energy  -12.83476396 # occ.  1.00000000
 
ion      s     py     pz     px    dxy    dyz    dz2    dxz  x2-y2    tot
    1  0.000  0.062  0.039  0.317  0.000  0.000  0.000  0.000  0.000  0.417
    2  0.000  0.005  0.003  0.028  0.000  0.000  0.000  0.000  0.000  0.037
    3  0.000  0.030  0.019  0.152  0.000  0.000  0.000  0.000  0.000  0.200
tot    0.000  0.097  0.061  0.496  0.000  0.000  0.000  0.000  0.000  0.655
 
band     6 # energy  -12.81418487 # occ.  1.00000000
 
ion      s     py     pz     px    dxy    dyz    dz2    dxz  x2-y2    tot
    1  0.011  0.001  0.136  0.014  0.000  0.000  0.000  0.000  0.000  0.161
    2  0.131  0.001  0.242  0.025  0.000  0.000  0.000  0.000  0.000  0.400
    3  0.025  0.001  0.139  0.014  0.000  0.000  0.000  0.000  0.000  0.179
tot    0.167  0.003  0.517  0.053  0.000  0.000  0.000  0.000  0.000  0.739
 
band     7 # energy   -8.20440221 # occ.  1.00000000
 
ion      s     py     pz     px    dxy    dyz    dz2    dxz  x2-y2    tot
    1  0.000  0.157  0.000  0.001  0.000  0.000  0.000  0.000  0.000  0.158
    2  0.000  0.385  0.001  0.002  0.000  0.000  0.000  0.000  0.000  0.387
    3  0.000  0.015  0.000  0.000  0.000  0.000  0.000  0.000  0.000  0.016
tot    0.000  0.557  0.001  0.003  0.000  0.000  0.000  0.000  0.000  0.561
 
band     8 # energy   -8.20436336 # occ.  1.00000000
 
ion      s     py     pz     px    dxy    dyz    dz2    dxz  x2-y2    tot
    1  0.000  0.000  0.015  0.143  0.000  0.000  0.000  0.000  0.000  0.158
    2  0.000  0.001  0.037  0.350  0.000  0.000  0.000  0.000  0.000  0.387
    3  0.000  0.000  0.001  0.014  0.000  0.000  0.000  0.000  0.000  0.016
tot    0.000  0.001  0.053  0.506  0.000  0.000  0.000  0.000  0.000  0.561
 
band     9 # energy   -1.32548749 # occ.  0.00000000
 
ion      s     py     pz     px    dxy    dyz    dz2    dxz  x2-y2    tot
    1  0.000  0.147  0.001  0.000  0.000  0.000  0.000  0.000  0.000  0.148
    2  0.000  0.083  0.001  0.000  0.000  0.000  0.000  0.000  0.000  0.084
    3  0.000  0.252  0.002  0.000  0.000  0.000  0.000  0.000  0.000  0.255
tot    0.000  0.482  0.003  0.001  0.000  0.000  0.000  0.000  0.000  0.487
 
band    10 # energy   -1.32538976 # occ.  0.00000000
 
ion      s     py     pz     px    dxy    dyz    dz2    dxz  x2-y2    tot
    1  0.000  0.001  0.013  0.134  0.000  0.000  0.000  0.000  0.000  0.148
    2  0.000  0.000  0.008  0.076  0.000  0.000  0.000  0.000  0.000  0.084
    3  0.000  0.001  0.023  0.231  0.000  0.000  0.000  0.000  0.000  0.255
tot    0.000  0.002  0.044  0.441  0.000  0.000  0.000  0.000  0.000  0.487
 
band    11 # energy   -0.40986076 # occ.  0.00000000
 
ion      s     py     pz     px    dxy    dyz    dz2    dxz  x2-y2    tot
    1  0.008  0.000  0.003  0.000  0.000  0.000  0.000  0.000  0.000  0.011
    2  0.023  0.000  0.006  0.001  0.000  0.000  0.000  0.000  0.000  0.030
    3  0.003  0.000  0.000  0.000  0.000  0.000  0.000  0.000  0.000  0.003
tot    0.033  0.000  0.009  0.001  0.000  0.000  0.000  0.000  0.000  0.044
 
band    12 # energy    0.35218416 # occ.  0.00000000
 
ion      s     py     pz     px    dxy    dyz    dz2    dxz  x2-y2    tot
    1  0.005  0.000  0.001  0.000  0.000  0.000  0.000  0.000  0.000  0.006
    2  0.005  0.000  0.004  0.000  0.000  0.000  0.000  0.000  0.000  0.009
    3  0.000  0.000  0.001  0.000  0.000  0.000  0.000  0.000  0.000  0.001
tot    0.010  0.000  0.006  0.000  0.000  0.000  0.000  0.000  0.000  0.016
 
band    13 # energy    0.51077583 # occ.  0.00000000
 
ion      s     py     pz     px    dxy    dyz    dz2    dxz  x2-y2    tot
    1  0.000  0.000  0.006  0.000  0.000  0.000  0.000  0.000  0.000  0.007
    2  0.016  0.000  0.006  0.001  0.000  0.000  0.000  0.000  0.000  0.023
    3  0.015  0.000  0.007  0.001  0.000  0.000  0.000  0.000  0.000  0.023
tot    0.031  0.000  0.019  0.002  0.000  0.000  0.000  0.000  0.000  0.052
 
band    14 # energy    0.66976696 # occ.  0.00000000
 
ion      s     py     pz     px    dxy    dyz    dz2    dxz  x2-y2    tot
    1  0.004  0.000  0.001  0.001  0.000  0.000  0.000  0.000  0.000  0.006
    2  0.003  0.000  0.018  0.000  0.000  0.000  0.000  0.000  0.000  0.022
    3  0.013  0.000  0.003  0.000  0.000  0.000  0.000  0.000  0.000  0.016
tot    0.021  0.000  0.022  0.001  0.000  0.000  0.000  0.000  0.000  0.044
 
band    15 # energy    0.83028154 # occ.  0.00000000
 
ion      s     py     pz     px    dxy    dyz    dz2    dxz  x2-y2    tot
    1  0.001  0.000  0.001  0.004  0.000  0.000  0.000  0.000  0.000  0.006
    2  0.000  0.001  0.000  0.017  0.000  0.000  0.000  0.000  0.000  0.018
    3  0.000  0.000  0.000  0.000  0.000  0.000  0.000  0.000  0.000  0.001
tot    0.001  0.001  0.001  0.022  0.000  0.000  0.000  0.000  0.000  0.025
 
band    16 # energy    0.83384947 # occ.  0.00000000
 
ion      s     py     pz     px    dxy    dyz    dz2    dxz  x2-y2    tot
    1  0.000  0.006  0.000  0.000  0.000  0.000  0.000  0.000  0.000  0.006
    2  0.000  0.017  0.000  0.001  0.000  0.000  0.000  0.000  0.000  0.019
    3  0.000  0.000  0.000  0.000  0.000  0.000  0.000  0.000  0.000  0.000
tot    0.000  0.024  0.000  0.001  0.000  0.000  0.000  0.000  0.000  0.025
 
