>>>  VASP 5.4.4 with BEEF-vdw and vtst
--------------------------------------------------------
>>>  Job information
     SLURM_JOBID=8766779
     SLURM_JOB_NODELIST=cpn-u23-20
     SLURM_NNODES=1
     SLURMTMPDIR=/scratch/8766779
     working directory = /projects/academic/ericwalk/ruthbell/Ads_Ag-SSZ13/SULPHURS/SO2-S/vtst
--------------------------------------------------------
>>>  Module information
--------------------------------------------------------
>>>  Running Configuration
NPROCS=16
--------------------------------------------------------
>>>  Job started at Wed Jun 29 12:49:52 EDT 2022
--------------------------------------------------------
 running on   16 total cores
 distrk:  each k-point on   16 cores,    1 groups
 distr:  one band on    4 cores,    4 groups
 using from now: INCAR     
 vasp.5.4.4.18Apr17-6-g9f103f2a35 (build Dec 31 2018 11:41:54) complex          
  
 POSCAR found type information on POSCAR  O  Si Al Ag S 
 POSCAR found :  5 types and     114 ions
 scaLAPACK will be used
 LDA part: xc-table for Pade appr. of Perdew
 POSCAR found type information on POSCAR  O  Si Al Ag S 
 POSCAR found :  5 types and     114 ions
 POSCAR, INCAR and KPOINTS ok, starting setup
 FFT: planning ...
 WAVECAR not read
 entering main loop
       N       E                     dE             d eps       ncg     rms          rms(c)
DAV:   1     0.441181367599E+04    0.44118E+04   -0.26112E+05  1800   0.103E+03
DAV:   2    -0.424418181322E+03   -0.48362E+04   -0.46596E+04  2096   0.296E+02
DAV:   3    -0.944383870962E+03   -0.51997E+03   -0.51625E+03  2128   0.102E+02
DAV:   4    -0.954817890689E+03   -0.10434E+02   -0.10395E+02  2136   0.158E+01
DAV:   5    -0.955091029744E+03   -0.27314E+00   -0.27275E+00  2152   0.235E+00    0.873E+01
DAV:   6    -0.600486932294E+03    0.35460E+03   -0.72170E+02  2024   0.394E+01    0.281E+01
DAV:   7    -0.690045632679E+03   -0.89559E+02   -0.84391E+01  2096   0.127E+01    0.193E+01
DAV:   8    -0.759917460365E+03   -0.69872E+02   -0.29847E+01  2064   0.805E+00    0.110E+01
DAV:   9    -0.837137120145E+03   -0.77220E+02   -0.57010E+01  2056   0.896E+00    0.490E+00
DAV:  10    -0.851550106631E+03   -0.14413E+02   -0.83087E+00  2120   0.368E+00    0.350E+00
DAV:  11    -0.867662525408E+03   -0.16112E+02   -0.10678E+01  1944   0.403E+00    0.167E+00
DAV:  12    -0.870287915926E+03   -0.26254E+01   -0.14437E+00  1992   0.151E+00    0.912E-01
DAV:  13    -0.871447915587E+03   -0.11600E+01   -0.51420E-01  1952   0.959E-01    0.414E-01
DAV:  14    -0.871572902518E+03   -0.12499E+00   -0.56348E-02  1976   0.354E-01    0.239E-01
DAV:  15    -0.871587116362E+03   -0.14214E-01   -0.11056E-02  2112   0.233E-01    0.128E-01
DAV:  16    -0.871590360050E+03   -0.32437E-02   -0.36631E-03  2032   0.127E-01    0.811E-02
DAV:  17    -0.871597342110E+03   -0.69821E-02   -0.22384E-03  2040   0.995E-02    0.435E-02
DAV:  18    -0.871600564483E+03   -0.32224E-02   -0.90925E-04  2040   0.642E-02    0.390E-02
DAV:  19    -0.871601031883E+03   -0.46740E-03   -0.35167E-04  2032   0.405E-02    0.158E-02
DAV:  20    -0.871601433198E+03   -0.40131E-03   -0.19538E-04  1968   0.308E-02    0.137E-02
DAV:  21    -0.871601731771E+03   -0.29857E-03   -0.84240E-05  2024   0.207E-02    0.101E-02
DAV:  22    -0.871601843546E+03   -0.11178E-03   -0.56933E-05  2048   0.166E-02    0.435E-03
DAV:  23    -0.871601920298E+03   -0.76752E-04   -0.30761E-05  2048   0.116E-02    0.455E-03
DAV:  24    -0.871601968673E+03   -0.48375E-04   -0.12415E-05  2056   0.693E-03    0.208E-03
DAV:  25    -0.871601992926E+03   -0.24253E-04   -0.86532E-06  2080   0.557E-03    0.183E-03
DAV:  26    -0.871602009921E+03   -0.16995E-04   -0.50551E-06  2040   0.398E-03    0.153E-03
DAV:  27    -0.871602013593E+03   -0.36717E-05   -0.12829E-06  2112   0.198E-03    0.127E-03
DAV:  28    -0.871602014055E+03   -0.46273E-06   -0.66893E-07  2064   0.148E-03    0.122E-03
DAV:  29    -0.871602013993E+03    0.62675E-07   -0.34588E-07  2056   0.993E-04    0.121E-03
DAV:  30    -0.871602014037E+03   -0.44383E-07   -0.11570E-07  2016   0.593E-04    0.119E-03
DAV:  31    -0.871602014052E+03   -0.15330E-07   -0.62524E-08  2016   0.413E-04    0.119E-03
DAV:  32    -0.871602014073E+03   -0.20191E-07   -0.18152E-08  1896   0.254E-04    0.118E-03
DAV:  33    -0.871602014080E+03   -0.70868E-08   -0.68715E-09  1840   0.160E-04
   1 F= -.87160201E+03 E0= -.87160201E+03  d E =-.871602E+03  mag=    -0.0000
quench:  g(F)=  0.000E+00 g(S)=  0.000E+00 dE (1.order)= 0.000E+00
 bond charge predicted
       N       E                     dE             d eps       ncg     rms          rms(c)
DAV:   1    -0.871601986581E+03    0.27492E-04   -0.53924E-03  1792   0.653E-02    0.114E-02
DAV:   2    -0.871601990015E+03   -0.34344E-05   -0.50373E-05  2040   0.555E-03    0.677E-03
DAV:   3    -0.871601989292E+03    0.72354E-06   -0.11668E-06  2096   0.157E-03    0.325E-03
DAV:   4    -0.871601989188E+03    0.10330E-06   -0.66117E-07  1776   0.845E-04    0.144E-03
DAV:   5    -0.871601989204E+03   -0.15862E-07   -0.10545E-07  2048   0.308E-04    0.130E-03
DAV:   6    -0.871601989208E+03   -0.36671E-08   -0.97284E-09  1688   0.118E-04
   2 F= -.87160199E+03 E0= -.87160199E+03  d E =0.248717E-04  mag=    -0.0000
quench:  g(F)=  0.000E+00 g(S)=  0.000E+00 dE (1.order)= 0.000E+00
 bond charge predicted
       N       E                     dE             d eps       ncg     rms          rms(c)
DAV:   1    -0.871601980433E+03    0.87714E-05   -0.11024E-02  1760   0.978E-02    0.193E-02
DAV:   2    -0.871601991723E+03   -0.11291E-04   -0.15313E-04  2064   0.990E-03    0.101E-02
DAV:   3    -0.871601990534E+03    0.11891E-05   -0.33880E-06  2160   0.281E-03    0.538E-03
DAV:   4    -0.871601990592E+03   -0.57924E-07   -0.21084E-06  2072   0.176E-03    0.185E-03
DAV:   5    -0.871601990531E+03    0.61249E-07   -0.32272E-07  2080   0.686E-04    0.143E-03
DAV:   6    -0.871601990513E+03    0.18154E-07   -0.31744E-08  2184   0.253E-04    0.125E-03
DAV:   7    -0.871601990502E+03    0.11358E-07   -0.10516E-08  1848   0.256E-04    0.119E-03
DAV:   8    -0.871601990498E+03    0.35652E-08   -0.25248E-09  1672   0.126E-04
   3 F= -.87160199E+03 E0= -.87160199E+03  d E =-.128994E-05  mag=    -0.0000
quench:  g(F)=  0.000E+00 g(S)=  0.000E+00 dE (1.order)= 0.000E+00
 bond charge predicted
       N       E                     dE             d eps       ncg     rms          rms(c)
DAV:   1    -0.871602002817E+03   -0.12315E-04   -0.10875E-02  1760   0.949E-02    0.239E-02
DAV:   2    -0.871602016497E+03   -0.13681E-04   -0.22048E-04  2032   0.114E-02    0.122E-02
DAV:   3    -0.871602013519E+03    0.29787E-05   -0.57869E-06  2112   0.369E-03    0.684E-03
DAV:   4    -0.871602012709E+03    0.81013E-06   -0.37417E-06  2112   0.203E-03    0.232E-03
DAV:   5    -0.871602012708E+03    0.56025E-09   -0.47882E-07  2056   0.809E-04    0.157E-03
DAV:   6    -0.871602012709E+03   -0.12587E-08   -0.69295E-08  2008   0.299E-04
   4 F= -.87160201E+03 E0= -.87160201E+03  d E =-.222113E-04  mag=    -0.0000
quench:  g(F)=  0.000E+00 g(S)=  0.000E+00 dE (1.order)= 0.000E+00
 bond charge predicted
       N       E                     dE             d eps       ncg     rms          rms(c)
DAV:   1    -0.871602009705E+03    0.30033E-05   -0.10810E-02  1760   0.961E-02    0.193E-02
DAV:   2    -0.871602025200E+03   -0.15495E-04   -0.19990E-04  2112   0.106E-02    0.104E-02
DAV:   3    -0.871602024070E+03    0.11301E-05   -0.40254E-06  2136   0.266E-03    0.596E-03
DAV:   4    -0.871602023953E+03    0.11703E-06   -0.27744E-06  1936   0.155E-03    0.202E-03
DAV:   5    -0.871602023920E+03    0.32982E-07   -0.44916E-07  2224   0.752E-04    0.145E-03
DAV:   6    -0.871602023915E+03    0.50859E-08   -0.41047E-08  1808   0.188E-04
   5 F= -.87160202E+03 E0= -.87160202E+03  d E =-.112054E-04  mag=    -0.0000
quench:  g(F)=  0.000E+00 g(S)=  0.000E+00 dE (1.order)= 0.000E+00
 bond charge predicted
       N       E                     dE             d eps       ncg     rms          rms(c)
DAV:   1    -0.871601999823E+03    0.24096E-04   -0.11089E-02  1760   0.987E-02    0.137E-02
DAV:   2    -0.871602008019E+03   -0.81960E-05   -0.97156E-05  2016   0.890E-03    0.749E-03
DAV:   3    -0.871602007635E+03    0.38456E-06   -0.14678E-06  2032   0.159E-03    0.355E-03
DAV:   4    -0.871602007710E+03   -0.75495E-07   -0.68890E-07  1808   0.112E-03    0.146E-03
DAV:   5    -0.871602007714E+03   -0.38272E-08   -0.11182E-07  2096   0.450E-04    0.133E-03
DAV:   6    -0.871602007706E+03    0.77489E-08   -0.10287E-08  1784   0.267E-04
   6 F= -.87160201E+03 E0= -.87160201E+03  d E =0.162082E-04  mag=    -0.0000
quench:  g(F)=  0.000E+00 g(S)=  0.000E+00 dE (1.order)= 0.000E+00
 bond charge predicted
       N       E                     dE             d eps       ncg     rms          rms(c)
DAV:   1    -0.871601987788E+03    0.19926E-04   -0.11006E-02  1760   0.973E-02    0.174E-02
DAV:   2    -0.871601995768E+03   -0.79796E-05   -0.12288E-04  2160   0.991E-03    0.916E-03
DAV:   3    -0.871601995144E+03    0.62387E-06   -0.32012E-06  2160   0.273E-03    0.518E-03
DAV:   4    -0.871601995519E+03   -0.37569E-06   -0.18853E-06  1848   0.142E-03    0.185E-03
DAV:   5    -0.871601995559E+03   -0.39945E-07   -0.29209E-07  2096   0.613E-04    0.141E-03
DAV:   6    -0.871601995546E+03    0.13519E-07   -0.27126E-08  1848   0.180E-04    0.126E-03
DAV:   7    -0.871601995548E+03   -0.20736E-08   -0.16237E-08  1672   0.209E-04
   7 F= -.87160200E+03 E0= -.87160200E+03  d E =0.121586E-04  mag=    -0.0000
quench:  g(F)=  0.000E+00 g(S)=  0.000E+00 dE (1.order)= 0.000E+00
 bond charge predicted
       N       E                     dE             d eps       ncg     rms          rms(c)
DAV:   1    -0.871601995218E+03    0.32784E-06   -0.64682E-03  1760   0.707E-02    0.190E-02
DAV:   2    -0.871602005286E+03   -0.10068E-04   -0.15410E-04  2160   0.103E-02    0.106E-02
DAV:   3    -0.871602003472E+03    0.18138E-05   -0.48993E-06  2144   0.303E-03    0.598E-03
DAV:   4    -0.871602002959E+03    0.51323E-06   -0.23401E-06  1864   0.169E-03    0.211E-03
DAV:   5    -0.871602002941E+03    0.18103E-07   -0.34739E-07  2320   0.896E-04    0.140E-03
DAV:   6    -0.871602002934E+03    0.67812E-08   -0.48319E-08  1952   0.283E-04
   8 F= -.87160200E+03 E0= -.87160200E+03  d E =-.738636E-05  mag=    -0.0000
quench:  g(F)=  0.000E+00 g(S)=  0.000E+00 dE (1.order)= 0.000E+00
 bond charge predicted
       N       E                     dE             d eps       ncg     rms          rms(c)
DAV:   1    -0.871601987513E+03    0.15428E-04   -0.18790E-03  1760   0.343E-02    0.183E-02
DAV:   2    -0.871601991137E+03   -0.36243E-05   -0.10001E-04  2352   0.134E-02    0.108E-02
DAV:   3    -0.871601989871E+03    0.12665E-05   -0.53573E-06  2176   0.322E-03    0.455E-03
DAV:   4    -0.871601989564E+03    0.30629E-06   -0.38963E-07  2400   0.181E-03    0.216E-03
DAV:   5    -0.871601989566E+03   -0.19791E-08   -0.25072E-07  2112   0.910E-04    0.136E-03
DAV:   6    -0.871601989580E+03   -0.13461E-07   -0.47452E-08  2240   0.427E-04    0.125E-03
DAV:   7    -0.871601989592E+03   -0.12165E-07   -0.15396E-08  1840   0.395E-04    0.119E-03
DAV:   8    -0.871601989591E+03    0.11787E-08   -0.63416E-09  2072   0.285E-04
   9 F= -.87160199E+03 E0= -.87160199E+03  d E =0.133433E-04  mag=    -0.0000
quench:  g(F)=  0.000E+00 g(S)=  0.000E+00 dE (1.order)= 0.000E+00
 bond charge predicted
       N       E                     dE             d eps       ncg     rms          rms(c)
DAV:   1    -0.871601976804E+03    0.12788E-04   -0.19664E-03  1760   0.370E-02    0.190E-02
DAV:   2    -0.871601983856E+03   -0.70519E-05   -0.11046E-04  2128   0.104E-02    0.124E-02
DAV:   3    -0.871601981881E+03    0.19756E-05   -0.66487E-06  2192   0.304E-03    0.469E-03
DAV:   4    -0.871601981408E+03    0.47266E-06   -0.56586E-07  2512   0.190E-03    0.269E-03
DAV:   5    -0.871601981314E+03    0.93831E-07   -0.26110E-07  2064   0.722E-04    0.149E-03
DAV:   6    -0.871601981284E+03    0.30268E-07   -0.10952E-07  1888   0.440E-04    0.130E-03
DAV:   7    -0.871601981263E+03    0.21413E-07   -0.79138E-09  1952   0.383E-04    0.119E-03
DAV:   8    -0.871601981259E+03    0.38781E-08   -0.10820E-08  2016   0.293E-04
  10 F= -.87160198E+03 E0= -.87160198E+03  d E =0.833216E-05  mag=    -0.0000
quench:  g(F)=  0.000E+00 g(S)=  0.000E+00 dE (1.order)= 0.000E+00
--------------------------------------------------------
>>>  Job finished at Wed Jun 29 13:26:23 EDT 2022
