 vasp.5.4.4.18Apr17-6-g9f103f2a35 (build Dec 31 2018 11:41:54) complex          
  
 executed on             LinuxIFC date 2022.06.29  12:49:54
 running on   16 total cores
 distrk:  each k-point on   16 cores,    1 groups
 distr:  one band on NCORES_PER_BAND=   4 cores,    4 groups


--------------------------------------------------------------------------------------------------------


 INCAR:
 POTCAR:   PAW_PBE O 08Apr2002                    
 POTCAR:   PAW_PBE Si 05Jan2001                   
 POTCAR:   PAW_PBE Al 04Jan2001                   
 POTCAR:   PAW_PBE Ag 06Sep2000                   
 POTCAR:    PAW_PBE S 17Jan2003                   
 POTCAR:   PAW_PBE O 08Apr2002                    
   VRHFIN =O: s2p4                                                              
   LEXCH  = PE                                                                  
   EATOM  =   432.3788 eV,   31.7789 Ry                                         
                                                                                
   TITEL  = PAW_PBE O 08Apr2002                                                 
   LULTRA =        F    use ultrasoft PP ?                                      
   IUNSCR =        0    unscreen: 0-lin 1-nonlin 2-no                           
   RPACOR =     .000    partial core radius                                     
   POMASS =   16.000; ZVAL   =    6.000    mass and valenz                      
   RCORE  =    1.520    outmost cutoff radius                                   
   RWIGS  =    1.550; RWIGS  =     .820    wigner-seitz radius (au A)           
   ENMAX  =  400.000; ENMIN  =  300.000 eV                                      
   ICORE  =        2    local potential                                         
   LCOR   =        T    correct aug charges                                     
   LPAW   =        T    paw PP                                                  
   EAUG   =  605.392                                                            
   DEXC   =     .000                                                            
   RMAX   =    2.264    core radius for proj-oper                               
   RAUG   =    1.300    factor for augmentation sphere                          
   RDEP   =    1.550    radius for radial grids                                 
   QCUT   =   -5.520; QGAM   =   11.041    optimization parameters              
                                                                                
   Description                                                                  
     l     E      TYP  RCUT    TYP  RCUT                                        
     0   .000     23  1.200                                                     
     0  -.700     23  1.200                                                     
     1   .000     23  1.520                                                     
     1   .600     23  1.520                                                     
     2   .000      7  1.500                                                     
  local pseudopotential read in
  atomic valenz-charges read in
  non local Contribution for L=           0  read in
    real space projection operators read in
  non local Contribution for L=           0  read in
    real space projection operators read in
  non local Contribution for L=           1  read in
    real space projection operators read in
  non local Contribution for L=           1  read in
    real space projection operators read in
    PAW grid and wavefunctions read in
 
   number of l-projection  operators is LMAX  =           4
   number of lm-projection operators is LMMAX =           8
 
 POTCAR:   PAW_PBE Si 05Jan2001                   
   VRHFIN =Si: s2p2                                                             
   LEXCH  = PE                                                                  
   EATOM  =   103.0669 eV,    7.5752 Ry                                         
                                                                                
   TITEL  = PAW_PBE Si 05Jan2001                                                
   LULTRA =        F    use ultrasoft PP ?                                      
   IUNSCR =        1    unscreen: 0-lin 1-nonlin 2-no                           
   RPACOR =    1.500    partial core radius                                     
   POMASS =   28.085; ZVAL   =    4.000    mass and valenz                      
   RCORE  =    1.900    outmost cutoff radius                                   
   RWIGS  =    2.480; RWIGS  =    1.312    wigner-seitz radius (au A)           
   ENMAX  =  245.345; ENMIN  =  184.009 eV                                      
   ICORE  =        2    local potential                                         
   LCOR   =        T    correct aug charges                                     
   LPAW   =        T    paw PP                                                  
   EAUG   =  322.069                                                            
   DEXC   =    -.007                                                            
   RMAX   =    2.944    core radius for proj-oper                               
   RAUG   =    1.300    factor for augmentation sphere                          
   RDEP   =    1.993    radius for radial grids                                 
   QCUT   =   -4.246; QGAM   =    8.493    optimization parameters              
                                                                                
   Description                                                                  
     l     E      TYP  RCUT    TYP  RCUT                                        
     0   .000     23  1.900                                                     
     0   .000     23  1.900                                                     
     1   .000     23  1.900                                                     
     1   .000     23  1.900                                                     
     2   .000      7  1.900                                                     
  local pseudopotential read in
  partial core-charges read in
  atomic valenz-charges read in
  non local Contribution for L=           0  read in
    real space projection operators read in
  non local Contribution for L=           0  read in
    real space projection operators read in
  non local Contribution for L=           1  read in
    real space projection operators read in
  non local Contribution for L=           1  read in
    real space projection operators read in
    PAW grid and wavefunctions read in
 
   number of l-projection  operators is LMAX  =           4
   number of lm-projection operators is LMMAX =           8
 
 POTCAR:   PAW_PBE Al 04Jan2001                   
   VRHFIN =Al: s2p1                                                             
   LEXCH  = PE                                                                  
   EATOM  =    53.5387 eV,    3.9350 Ry                                         
                                                                                
   TITEL  = PAW_PBE Al 04Jan2001                                                
   LULTRA =        F    use ultrasoft PP ?                                      
   IUNSCR =        1    unscreen: 0-lin 1-nonlin 2-no                           
   RPACOR =    1.500    partial core radius                                     
   POMASS =   26.982; ZVAL   =    3.000    mass and valenz                      
   RCORE  =    1.900    outmost cutoff radius                                   
   RWIGS  =    2.650; RWIGS  =    1.402    wigner-seitz radius (au A)           
   ENMAX  =  240.300; ENMIN  =  180.225 eV                                      
   ICORE  =        2    local potential                                         
   LCOR   =        T    correct aug charges                                     
   LPAW   =        T    paw PP                                                  
   EAUG   =  291.052                                                            
   DEXC   =    -.041                                                            
   RMAX   =    2.974    core radius for proj-oper                               
   RAUG   =    1.300    factor for augmentation sphere                          
   RDEP   =    1.966    radius for radial grids                                 
   QCUT   =   -4.203; QGAM   =    8.405    optimization parameters              
                                                                                
   Description                                                                  
     l     E      TYP  RCUT    TYP  RCUT                                        
     0   .000     23  1.900                                                     
     0   .000     23  1.900                                                     
     1   .000     23  1.900                                                     
     1  1.000     23  1.900                                                     
     2   .000      7  1.900                                                     
  local pseudopotential read in
  partial core-charges read in
  atomic valenz-charges read in
  non local Contribution for L=           0  read in
    real space projection operators read in
  non local Contribution for L=           0  read in
    real space projection operators read in
  non local Contribution for L=           1  read in
    real space projection operators read in
  non local Contribution for L=           1  read in
    real space projection operators read in
    PAW grid and wavefunctions read in
 
   number of l-projection  operators is LMAX  =           4
   number of lm-projection operators is LMMAX =           8
 
 POTCAR:   PAW_PBE Ag 06Sep2000                   
   VRHFIN =Ag : s1 d10                                                          
   LEXCH  = PE                                                                  
   EATOM  =  1037.4134 eV,   76.2477 Ry                                         
                                                                                
   TITEL  = PAW_PBE Ag 06Sep2000                                                
   LULTRA =        F    use ultrasoft PP ?                                      
   IUNSCR =        1    unscreen: 0-lin 1-nonlin 2-no                           
   RPACOR =    2.000    partial core radius                                     
   POMASS =  107.868; ZVAL   =   11.000    mass and valenz                      
   RCORE  =    2.400    outmost cutoff radius                                   
   RWIGS  =    2.840; RWIGS  =    1.503    wigner-seitz radius (au A)           
   ENMAX  =  249.846; ENMIN  =  187.385 eV                                      
   RCLOC  =    1.962    cutoff for local pot                                    
   LCOR   =        T    correct aug charges                                     
   LPAW   =        T    paw PP                                                  
   EAUG   =  412.496                                                            
   DEXC   =    -.047                                                            
   RMAX   =    2.917    core radius for proj-oper                               
   RAUG   =    1.300    factor for augmentation sphere                          
   RDEP   =    2.416    radius for radial grids                                 
   QCUT   =   -4.285; QGAM   =    8.570    optimization parameters              
                                                                                
   Description                                                                  
     l     E      TYP  RCUT    TYP  RCUT                                        
     2   .000     23  2.400                                                     
     2   .000     23  2.400                                                     
     0   .000     23  2.400                                                     
     0   .000     23  2.400                                                     
     1  -.200     23  2.400                                                     
     1  1.500     23  2.400                                                     
     3   .000      7   .000                                                     
  local pseudopotential read in
  partial core-charges read in
  atomic valenz-charges read in
  non local Contribution for L=           2  read in
    real space projection operators read in
  non local Contribution for L=           2  read in
    real space projection operators read in
  non local Contribution for L=           0  read in
    real space projection operators read in
  non local Contribution for L=           0  read in
    real space projection operators read in
  non local Contribution for L=           1  read in
    real space projection operators read in
  non local Contribution for L=           1  read in
    real space projection operators read in
    PAW grid and wavefunctions read in
 
   number of l-projection  operators is LMAX  =           6
   number of lm-projection operators is LMMAX =          18
 
 POTCAR:    PAW_PBE S 17Jan2003                   
   VRHFIN =S : s2p4                                                             
   LEXCH  = PE                                                                  
   EATOM  =   276.8230 eV,   20.3459 Ry                                         
                                                                                
   TITEL  = PAW_PBE S 17Jan2003                                                 
   LULTRA =        F    use ultrasoft PP ?                                      
   IUNSCR =        1    unscreen: 0-lin 1-nonlin 2-no                           
   RPACOR =    1.500    partial core radius                                     
   POMASS =   32.066; ZVAL   =    6.000    mass and valenz                      
   RCORE  =    1.900    outmost cutoff radius                                   
   RWIGS  =    2.200; RWIGS  =    1.164    wigner-seitz radius (au A)           
   ENMAX  =  280.000; ENMIN  =  194.016 eV                                      
   ICORE  =        2    local potential                                         
   LCOR   =        T    correct aug charges                                     
   LPAW   =        T    paw PP                                                  
   EAUG   =  335.092                                                            
   DEXC   =     .000                                                            
   RMAX   =    2.867    core radius for proj-oper                               
   RAUG   =    1.300    factor for augmentation sphere                          
   RDEP   =    1.954    radius for radial grids                                 
   QCUT   =   -4.360; QGAM   =    8.721    optimization parameters              
                                                                                
   Description                                                                  
     l     E      TYP  RCUT    TYP  RCUT                                        
     0   .000     23  1.900                                                     
     0   .000     23  1.900                                                     
     1   .000     23  1.900                                                     
     1   .000     23  1.900                                                     
     2   .000     23  1.900                                                     
  local pseudopotential read in
  partial core-charges read in
  atomic valenz-charges read in
  non local Contribution for L=           0  read in
    real space projection operators read in
  non local Contribution for L=           0  read in
    real space projection operators read in
  non local Contribution for L=           1  read in
    real space projection operators read in
  non local Contribution for L=           1  read in
    real space projection operators read in
    PAW grid and wavefunctions read in
 
   number of l-projection  operators is LMAX  =           4
   number of lm-projection operators is LMMAX =           8
 
 Optimization of the real space projectors (new method)

 maximal supplied QI-value         = 24.76
 optimisation between [QCUT,QGAM] = [ 10.15, 20.30] = [ 28.85,115.39] Ry 
 Optimized for a Real-space Cutoff    1.51 Angstroem

   l    n(q)    QCUT    max X(q) W(low)/X(q) W(high)/X(q)  e(spline) 
   0      9    10.150     4.192    0.32E-04    0.13E-04    0.13E-06
   0      9    10.150     8.473    0.18E-03    0.20E-03    0.43E-06
   1      9    10.150     2.474    0.32E-04    0.33E-04    0.64E-07
   1      9    10.150     3.912    0.13E-03    0.16E-03    0.33E-06
 Optimization of the real space projectors (new method)

 maximal supplied QI-value         = 19.84
 optimisation between [QCUT,QGAM] = [ 10.12, 20.44] = [ 28.68,116.96] Ry 
 Optimized for a Real-space Cutoff    1.38 Angstroem

   l    n(q)    QCUT    max X(q) W(low)/X(q) W(high)/X(q)  e(spline) 
   0      8    10.119     8.708    0.16E-04    0.67E-05    0.60E-08
   0      8    10.119   106.241    0.56E-04    0.11E-03    0.54E-07
   1      8    10.119     5.901    0.16E-04    0.16E-05    0.22E-07
   1      8    10.119    73.241    0.22E-03    0.17E-03    0.18E-06
 Optimization of the real space projectors (new method)

 maximal supplied QI-value         = 19.84
 optimisation between [QCUT,QGAM] = [ 10.12, 20.44] = [ 28.68,116.96] Ry 
 Optimized for a Real-space Cutoff    1.26 Angstroem

   l    n(q)    QCUT    max X(q) W(low)/X(q) W(high)/X(q)  e(spline) 
   0      8    10.119    13.410    0.28E-04    0.17E-04    0.51E-08
   0      8    10.119   140.052    0.10E-03    0.16E-03    0.42E-07
   1      7    10.119     9.624    0.38E-04    0.42E-05    0.15E-07
   1      7    10.119    53.353    0.23E-03    0.17E-03    0.13E-06
 Optimization of the real space projectors (new method)

 maximal supplied QI-value         = 15.68
 optimisation between [QCUT,QGAM] = [ 10.20, 20.39] = [ 29.11,116.42] Ry 
 Optimized for a Real-space Cutoff    1.51 Angstroem

   l    n(q)    QCUT    max X(q) W(low)/X(q) W(high)/X(q)  e(spline) 
   2      8    10.195     3.831    0.11E-04    0.20E-04    0.48E-07
   2      8    10.195    20.184    0.23E-03    0.42E-03    0.20E-06
   0      9    10.195    16.770    0.13E-04    0.90E-05    0.63E-08
   0      9    10.195    80.708    0.19E-03    0.15E-03    0.44E-07
   1      9    10.195     6.696    0.12E-04    0.45E-04    0.30E-07
   1      9    10.195     8.973    0.12E-03    0.15E-03    0.13E-06
 Optimization of the real space projectors (new method)

 maximal supplied QI-value         = 19.84
 optimisation between [QCUT,QGAM] = [ 10.12, 20.44] = [ 28.68,116.96] Ry 
 Optimized for a Real-space Cutoff    1.42 Angstroem

   l    n(q)    QCUT    max X(q) W(low)/X(q) W(high)/X(q)  e(spline) 
   0      9    10.119     5.487    0.15E-04    0.47E-05    0.66E-08
   0      9    10.119    85.627    0.51E-04    0.92E-04    0.63E-07
   1      8    10.119     3.530    0.37E-05    0.76E-05    0.28E-07
   1      8    10.119    42.714    0.16E-03    0.16E-03    0.23E-06
 PAW_PBE O 08Apr2002                    :
 energy of atom  1       EATOM= -432.3788
 kinetic energy error for atom=    0.1156 (will be added to EATOM!!)
 PAW_PBE Si 05Jan2001                   :
 energy of atom  2       EATOM= -103.0669
 kinetic energy error for atom=    0.0012 (will be added to EATOM!!)
 PAW_PBE Al 04Jan2001                   :
 energy of atom  3       EATOM=  -53.5387
 kinetic energy error for atom=    0.0005 (will be added to EATOM!!)
 PAW_PBE Ag 06Sep2000                   :
 energy of atom  4       EATOM=-1037.4134
 kinetic energy error for atom=    0.0091 (will be added to EATOM!!)
  PAW_PBE S 17Jan2003                   :
 energy of atom  5       EATOM= -276.8230
 kinetic energy error for atom=    0.0046 (will be added to EATOM!!)
 
 
 POSCAR: O  C                                    
  positions in direct lattice
  velocities in cartesian coordinates
 exchange correlation table for  LEXCH =        8
   RHO(1)=    0.500       N(1)  =     2000
   RHO(2)=  100.500       N(2)  =     4000

 VTST: version 3.2, (02/03/18)

 CHAIN: initializing optimizer
 
 OPT: Using VASP Quick-Min optimizer
 CHAIN: Read ICHAIN            1
 
 POSCAR: O  C                                    
  positions in direct lattice
  velocities in cartesian coordinates
 CHAIN: Running the Dynamical Matrix
 


--------------------------------------------------------------------------------------------------------


 ion  position               nearest neighbor table
   1  0.900  0.099  0.118-  75 1.63  82 1.63
   2  0.106  0.891  0.878-  76 1.62  81 1.63
   3  0.894  0.795  0.129-  85 1.62  77 1.64
   4  0.096  0.197  0.864-  78 1.63  84 1.63
   5  0.197  0.105  0.115-  79 1.62  83 1.63
   6  0.803  0.907  0.879-  80 1.60 108 1.72
   7  0.556  0.428  0.454-  86 1.62  92 1.63
   8  0.764  0.235  0.218-  91 1.59 109 1.73
   9  0.566  0.142  0.470-  96 1.64  87 1.64
  10  0.768  0.541  0.205-  95 1.63  88 1.63
  11  0.866  0.428  0.458-  94 1.62  89 1.63
  12  0.465  0.237  0.183-  90 1.63  93 1.64
  13  0.231  0.777  0.774- 104 1.61  97 1.64
  14  0.426  0.571  0.525-  98 1.66 103 1.66 112 2.55
  15  0.234  0.453  0.772- 107 1.62  99 1.62
  16  0.430  0.853  0.530- 100 1.63 110 1.79 112 2.27
  17  0.535  0.758  0.805- 101 1.63 106 1.64
  18  0.125  0.561  0.533- 105 1.65 102 1.68 112 2.44
  19  0.978  0.317  0.159-  75 1.61  91 1.63
  20  0.022  0.670  0.841- 104 1.62  76 1.63
  21  0.678  0.673  0.171-  95 1.61  77 1.63
  22  0.314  0.318  0.818- 107 1.62  78 1.63
  23  0.319  0.016  0.177-  79 1.61  93 1.63
  24  0.664  0.982  0.826- 106 1.62  80 1.63
  25  0.326  0.987  0.838-  81 1.61  97 1.63
  26  0.678  0.005  0.161-  82 1.60 109 1.74 111 2.54
  27  0.673  0.673  0.813- 101 1.62 108 1.78 113 2.27
  28  0.334  0.325  0.156-  83 1.62  90 1.62
  29  0.020  0.339  0.832-  99 1.61  84 1.62
  30  0.988  0.671  0.170-  85 1.62  88 1.62
  31  0.647  0.642  0.503- 103 1.61  86 1.62
  32  0.342  0.995  0.475-  87 1.59 110 1.71
  33  0.995  0.339  0.498- 105 1.60  89 1.63
  34  0.339  0.352  0.480-  98 1.61  92 1.63
  35  0.987  0.645  0.504- 102 1.62  94 1.62
  36  0.651  0.009  0.515- 100 1.61  96 1.64
  37  0.119  0.244  0.129-  83 1.61  75 1.62
  38  0.887  0.750  0.852-  76 1.63 108 1.78 113 2.31
  39  0.762  0.879  0.110-  82 1.60  77 1.61
  40  0.231  0.110  0.870-  78 1.61  81 1.62
  41  0.113  0.884  0.128-  79 1.61  85 1.61
  42  0.877  0.125  0.858-  84 1.61  80 1.62
  43  0.776  0.559  0.466-  86 1.61  94 1.62
  44  0.536  0.087  0.175-  93 1.62 109 1.79 111 2.31
  45  0.416  0.211  0.467-  92 1.60  87 1.64
  46  0.903  0.454  0.197-  88 1.61  91 1.63
  47  0.784  0.209  0.453-  89 1.60  96 1.63
  48  0.548  0.456  0.194-  90 1.61  95 1.62
  49  0.447  0.893  0.807- 106 1.62  97 1.64
  50  0.210  0.429  0.540-  98 1.62 105 1.62
  51  0.123  0.557  0.801-  99 1.61 104 1.62
  52  0.580  0.789  0.520- 103 1.61 100 1.64
  53  0.452  0.536  0.799- 107 1.62 101 1.63
  54  0.203  0.778  0.546- 102 1.58 110 1.74
  55  1.000  0.259  0.994-  84 1.62  75 1.63
  56  0.991  0.732  0.001-  76 1.62  85 1.63
  57  0.736  0.716  0.998-  77 1.60 108 1.72
  58  0.256  0.267  0.991-  78 1.63  83 1.63
  59  0.268  0.001  0.003-  81 1.63  79 1.64
  60  0.662  0.591  0.333-  86 1.62  95 1.63
  61  0.633  0.051  0.341-  96 1.60 109 1.72
  62  0.440  0.108  0.324-  93 1.61  87 1.63
  63  0.923  0.590  0.334-  94 1.62  88 1.63
  64  0.940  0.344  0.329-  89 1.62  91 1.64
  65  0.406  0.324  0.321-  92 1.62  90 1.63
  66  0.361  0.952  0.666-  97 1.59 110 1.74
  67  0.354  0.410  0.654-  98 1.63 107 1.64
  68  0.060  0.409  0.665- 105 1.62  99 1.63
  69  0.576  0.897  0.667- 106 1.61 100 1.62
  70  0.570  0.661  0.660- 103 1.61 101 1.62
  71  0.053  0.639  0.670- 104 1.64 102 1.64
  72  0.733  0.014  0.993-  80 1.66  82 1.67 111 2.49
  73  0.742  0.337  0.797- 114 1.44
  74  0.714  0.374  0.635- 114 1.44
  75  0.997  0.229  0.101-  19 1.61  37 1.62  55 1.63   1 1.63  83 3.09  91 3.10  82 3.12  84 3.14

  76  0.003  0.763  0.895-  56 1.62   2 1.62  38 1.63  20 1.63 104 3.06  85 3.13 108 3.16 113 3.37

  77  0.767  0.765  0.099-  57 1.60  39 1.61  21 1.63   3 1.64  95 3.01 108 3.08  85 3.09
  78  0.223  0.223  0.887-  40 1.61  58 1.63  22 1.63   4 1.63 107 3.07  83 3.11  84 3.12
  79  0.224  0.002  0.106-  41 1.61  23 1.61   5 1.62  59 1.64  93 3.04  81 3.08
  80  0.771  0.004  0.888-   6 1.60  42 1.62  24 1.63  72 1.66 106 3.07  84 3.09  82 3.10 108 3.22

  81  0.232  0.997  0.897-  25 1.61  40 1.62   2 1.63  59 1.63  97 3.07  79 3.08
  82  0.770  0.999  0.098-  26 1.60  39 1.60   1 1.63  72 1.67  80 3.10  75 3.12 109 3.16 111 3.17

  83  0.226  0.234  0.097-  37 1.61  28 1.62   5 1.63  58 1.63  90 3.05  75 3.09  78 3.11
  84  0.998  0.228  0.888-  42 1.61  55 1.62  29 1.62   4 1.63  99 3.06  80 3.09  78 3.12  75 3.14

  85  0.995  0.770  0.107-  41 1.61   3 1.62  30 1.62  56 1.63  88 3.03  77 3.09  76 3.13
  86  0.660  0.554  0.437-  43 1.61  60 1.62   7 1.62  31 1.62 103 3.07  94 3.11  95 3.12  92 3.13

  87  0.440  0.110  0.435-  32 1.59  62 1.63  45 1.64   9 1.64  96 3.03  92 3.04 110 3.06
  88  0.894  0.563  0.227-  46 1.61  30 1.62  63 1.63  10 1.63  85 3.03  91 3.11  94 3.13
  89  0.894  0.328  0.432-  47 1.60  64 1.62  11 1.63  33 1.63 105 3.03  91 3.06  94 3.13
  90  0.439  0.335  0.214-  48 1.61  28 1.62  65 1.63  12 1.63  83 3.05  93 3.06  95 3.13
  91  0.892  0.334  0.226-   8 1.59  19 1.63  46 1.63  64 1.64  89 3.06  75 3.10  88 3.11 109 3.23

  92  0.430  0.327  0.429-  45 1.60  65 1.62   7 1.63  34 1.63  87 3.04  98 3.06  86 3.13
  93  0.441  0.112  0.216-  62 1.61  44 1.62  23 1.63  12 1.64  79 3.04  90 3.06 109 3.07
  94  0.888  0.554  0.439-  43 1.62  63 1.62  35 1.62  11 1.62 102 3.05  86 3.11  89 3.13  88 3.13

  95  0.665  0.565  0.226-  21 1.61  48 1.62  60 1.63  10 1.63  77 3.01  86 3.12  90 3.13
  96  0.657  0.102  0.441-  61 1.60  47 1.63  36 1.64   9 1.64  87 3.03 100 3.04 109 3.12
  97  0.341  0.904  0.767-  66 1.59  25 1.63  13 1.64  49 1.64  81 3.07 106 3.08 110 3.12
  98  0.332  0.438  0.551-  34 1.61  50 1.62  67 1.63  14 1.66  92 3.06 103 3.10 107 3.10
  99  0.110  0.439  0.768-  29 1.61  51 1.61  15 1.62  68 1.63  84 3.06 104 3.07 105 3.08
 100  0.559  0.890  0.557-  36 1.61  69 1.62  16 1.63  52 1.64  96 3.04 103 3.04 110 3.17 112 3.34

 101  0.557  0.658  0.770-  27 1.62  70 1.62  53 1.63  17 1.63 107 3.07 106 3.08 108 3.14
 102  0.093  0.660  0.564-  54 1.58  35 1.62  71 1.64  18 1.68  94 3.05 104 3.06 105 3.13 112 3.26

 103  0.557  0.667  0.552-  31 1.61  70 1.61  52 1.61  14 1.66 100 3.04  86 3.07  98 3.10
 104  0.110  0.664  0.771-  13 1.61  51 1.62  20 1.62  71 1.64  76 3.06 102 3.06  99 3.07
 105  0.095  0.432  0.559-  33 1.60  68 1.62  50 1.62  18 1.65  89 3.03  99 3.08 102 3.13
 106  0.555  0.882  0.774-  69 1.61  49 1.62  24 1.62  17 1.64  80 3.07  97 3.08 101 3.08
 107  0.338  0.428  0.761-  22 1.62  15 1.62  53 1.62  67 1.64  78 3.07 101 3.07  98 3.10
 108  0.775  0.770  0.891-  57 1.72   6 1.72  38 1.78  27 1.78 113 3.02  77 3.08 101 3.14  76 3.16
                            80 3.22
 109  0.657  0.096  0.230-  61 1.72   8 1.73  26 1.74  44 1.79  93 3.07 111 3.09  96 3.12  82 3.16
                            91 3.23
 110  0.333  0.901  0.556-  32 1.71  54 1.74  66 1.74  16 1.79  87 3.06  97 3.12 100 3.17 112 3.24

 111  0.565  0.028  0.035-  44 2.31  72 2.49  26 2.54 109 3.09  82 3.17
 112  0.320  0.673  0.479-  16 2.27  18 2.44  14 2.55 110 3.24 102 3.26 100 3.34
 113  0.771  0.586  0.775-  27 2.27  38 2.31 114 2.33 108 3.02  76 3.37
 114  0.742  0.411  0.727-  74 1.44  73 1.44 113 2.33
 
  LATTYP: Found a hexagonal cell.
 ALAT       =    13.6750001907
 C/A-ratio  =     1.0798537472
  
  Lattice vectors:
  
 A1 = (  13.6750001907,   0.0000000000,   0.0000000000)
 A2 = (  -6.8375000954,  11.8428975619,   0.0000000000)
 A3 = (   0.0000000000,   0.0000000000,  14.7670001984)


Analysis of symmetry for initial positions (statically):
=====================================================================
 Subroutine PRICEL returns:
 Original cell was already a primitive cell.
 

 Routine SETGRP: Setting up the symmetry group for a 
 hexagonal supercell.


 Subroutine GETGRP returns: Found  1 space group operations
 (whereof  1 operations were pure point group operations)
 out of a pool of 24 trial point group operations.


The static configuration has the point symmetry C_1 .


Analysis of symmetry for dynamics (positions and initial velocities):
=====================================================================
 Subroutine PRICEL returns:
 Original cell was already a primitive cell.
 

 Routine SETGRP: Setting up the symmetry group for a 
 hexagonal supercell.


 Subroutine GETGRP returns: Found  1 space group operations
 (whereof  1 operations were pure point group operations)
 out of a pool of 24 trial point group operations.


The dynamic configuration has the point symmetry C_1 .


Analysis of structural, dynamic, and magnetic symmetry:
=====================================================================
 Subroutine PRICEL returns:
 Original cell was already a primitive cell.
 

 Routine SETGRP: Setting up the symmetry group for a 
 hexagonal supercell.


 Subroutine GETGRP returns: Found  1 space group operations
 (whereof  1 operations were pure point group operations)
 out of a pool of 24 trial point group operations.


The magnetic configuration has the point symmetry C_1 .


 Subroutine INISYM returns: Found  1 space group operations
 (whereof  1 operations are pure point group operations),
 and found     1 'primitive' translations

 
 
 KPOINTS: Gamma points only                       
  k-points in reciprocal lattice
Space group operators:
 irot       det(A)        alpha          n_x          n_y          n_z        tau_x        tau_y        tau_z
    1     1.000000     0.000000     1.000000     0.000000     0.000000     0.000000     0.000000     0.000000


--------------------------------------------------------------------------------------------------------




 Dimension of arrays:
   k-points           NKPTS =      1   k-points in BZ     NKDIM =      1   number of bands    NBANDS=    432
   number of dos      NEDOS =    301   number of ions     NIONS =    114
   non local maximal  LDIM  =      6   non local SUM 2l+1 LMDIM =     18
   total plane-waves  NPLWV = 777600
   max r-space proj   IRMAX =   4725   max aug-charges    IRDMAX= 128081
   dimension x,y,z NGX =    90 NGY =   90 NGZ =   96
   dimension x,y,z NGXF=   180 NGYF=  180 NGZF=  192
   support grid    NGXF=   360 NGYF=  360 NGZF=  384
   ions per type =              74  33   3   3   1
   NGX,Y,Z   is equivalent  to a cutoff of  10.94, 10.94, 10.81 a.u.
   NGXF,Y,Z  is equivalent  to a cutoff of  21.88, 21.88, 21.62 a.u.

 SYSTEM =  zeolite                                 
 POSCAR =  O  C                                    

 Startparameter for this run:
   NWRITE =      2    write-flag & timer
   PREC   = acc       normal or accurate (medium, high low for compatibility)
   ISTART =      0    job   : 0-new  1-cont  2-samecut
   ICHARG =      2    charge: 1-file 2-atom 10-const
   ISPIN  =      2    spin polarized calculation?
   LNONCOLLINEAR =      F non collinear calculations
   LSORBIT =      F    spin-orbit coupling
   INIWAV =      1    electr: 0-lowe 1-rand  2-diag
   LASPH  =      F    aspherical Exc in radial PAW
   METAGGA=      F    non-selfconsistent MetaGGA calc.

 Electronic Relaxation 1
   ENCUT  =  400.0 eV  29.40 Ry    5.42 a.u.  22.30 22.30 24.08*2*pi/ulx,y,z
   ENINI  =  400.0     initial cutoff
   ENAUG  =  605.4 eV  augmentation charge cutoff
   NELM   =    100;   NELMIN=  2; NELMDL= -5     # of ELM steps 
   EDIFF  = 0.1E-07   stopping-criterion for ELM
   LREAL  =      T    real-space projection
   NLSPLINE    = F    spline interpolate recip. space projectors
   LCOMPAT=      F    compatible to vasp.4.4
   GGA_COMPAT  = T    GGA compatible to vasp.4.4-vasp.4.6
   LMAXPAW     = -100 max onsite density
   LMAXMIX     =    2 max onsite mixed and CHGCAR
   VOSKOWN=      0    Vosko Wilk Nusair interpolation
   ROPT   =   -0.00025  -0.00025  -0.00025  -0.00025
   ROPT   =   -0.00025
 Ionic relaxation
   EDIFFG = -.1E-07   stopping-criterion for IOM
   NSW    =     10    number of steps for IOM
   NBLOCK =      1;   KBLOCK =     10    inner block; outer block 
   IBRION =      3    ionic relax: 0-MD 1-quasi-New 2-CG
   NFREE  =      0    steps in history (QN), initial steepest desc. (CG)
   ISIF   =      2    stress and relaxation
   IWAVPR =     11    prediction:  0-non 1-charg 2-wave 3-comb
   ISYM   =      2    0-nonsym 1-usesym 2-fastsym
   LCORR  =      T    Harris-Foulkes like correction to forces

   POTIM  = 0.0000    time-step for ionic-motion
   TEIN   =    0.0    initial temperature
   TEBEG  =    0.0;   TEEND  =   0.0 temperature during run
   SMASS  =  -3.00    Nose mass-parameter (am)
   estimated Nose-frequenzy (Omega)   =  0.10E-29 period in steps =  0.00 mass=  -0.427E-26a.u.
   SCALEE = 1.0000    scale energy and forces
   NPACO  =    256;   APACO  = 16.0  distance and # of slots for P.C.
   PSTRESS=    0.0 pullay stress

  Mass of Ions in am
   POMASS =  16.00 28.09 26.98107.87 32.07
  Ionic Valenz
   ZVAL   =   6.00  4.00  3.00 11.00  6.00
  Atomic Wigner-Seitz radii
   RWIGS  =  -1.00 -1.00 -1.00 -1.00 -1.00
  virtual crystal weights 
   VCA    =   1.00  1.00  1.00  1.00  1.00
   NELECT =     624.0000    total number of electrons
   NUPDOWN=      -1.0000    fix difference up-down

 DOS related values:
   EMIN   =  10.00;   EMAX   =-10.00  energy-range for DOS
   EFERMI =   0.00
   ISMEAR =     0;   SIGMA  =   0.05  broadening in eV -4-tet -1-fermi 0-gaus

 Electronic relaxation 2 (details)
   IALGO  =     38    algorithm
   LDIAG  =      T    sub-space diagonalisation (order eigenvalues)
   LSUBROT=      F    optimize rotation matrix (better conditioning)
   TURBO    =      0    0=normal 1=particle mesh
   IRESTART =      0    0=no restart 2=restart with 2 vectors
   NREBOOT  =      0    no. of reboots
   NMIN     =      0    reboot dimension
   EREF     =   0.00    reference energy to select bands
   IMIX   =      4    mixing-type and parameters
     AMIX     =   0.40;   BMIX     =  1.00
     AMIX_MAG =   1.60;   BMIX_MAG =  1.00
     AMIN     =   0.10
     WC   =   100.;   INIMIX=   1;  MIXPRE=   1;  MAXMIX= -45

 Intra band minimization:
   WEIMIN = 0.0010     energy-eigenvalue tresh-hold
   EBREAK =  0.58E-12  absolut break condition
   DEPER  =   0.30     relativ break condition  

   TIME   =   0.40     timestep for ELM

  volume/ion in A,a.u.               =      20.98       141.57
  Fermi-wavevector in a.u.,A,eV,Ry     =   1.046110  1.976860 14.889470  1.094345
  Thomas-Fermi vector in A             =   2.180934
 
 Write flags
   LWAVE        =      F    write WAVECAR
   LDOWNSAMPLE  =      F    k-point downsampling of WAVECAR
   LCHARG       =      F    write CHGCAR
   LVTOT        =      F    write LOCPOT, total local potential
   LVHAR        =      F    write LOCPOT, Hartree potential only
   LELF         =      F    write electronic localiz. function (ELF)
   LORBIT       =     11    0 simple, 1 ext, 2 COOP (PROOUT), +10 PAW based schemes


 Dipole corrections
   LMONO  =      F    monopole corrections only (constant potential shift)
   LDIPOL =      F    correct potential (dipole corrections)
   IDIPOL =      0    1-x, 2-y, 3-z, 4-all directions 
   EPSILON=  1.0000000 bulk dielectric constant

 Exchange correlation treatment:
   GGA     =    --    GGA type
   LEXCH   =     8    internal setting for exchange type
   VOSKOWN=      0    Vosko Wilk Nusair interpolation
   LHFCALC =     F    Hartree Fock is set to
   LHFONE  =     F    Hartree Fock one center treatment
   AEXX    =    0.0000 exact exchange contribution

 Linear response parameters
   LEPSILON=     F    determine dielectric tensor
   LRPA    =     F    only Hartree local field effects (RPA)
   LNABLA  =     F    use nabla operator in PAW spheres
   LVEL    =     F    velocity operator in full k-point grid
   LINTERFAST=   F  fast interpolation
   KINTER  =     0    interpolate to denser k-point grid
   CSHIFT  =0.1000    complex shift for real part using Kramers Kronig
   OMEGAMAX=  -1.0    maximum frequency
   DEG_THRESHOLD= 0.2000000E-02 threshold for treating states as degnerate
   RTIME   =   -0.100 relaxation time in fs
  (WPLASMAI=    0.000 imaginary part of plasma frequency in eV, 0.658/RTIME)
   DFIELD  = 0.0000000 0.0000000 0.0000000 field for delta impulse in time
 
 Orbital magnetization related:
   ORBITALMAG=     F  switch on orbital magnetization
   LCHIMAG   =     F  perturbation theory with respect to B field
   DQ        =  0.001000  dq finite difference perturbation B field
   LLRAUG    =     F  two centre corrections for induced B field



--------------------------------------------------------------------------------------------------------


 quickmin algorithm: (dynamic with friction)
 charge density and potential will be updated during run
 spin polarized calculation
 Variant of blocked Davidson
 Davidson routine will perform the subspace rotation
 perform sub-space diagonalisation
    after iterative eigenvector-optimisation
 modified Broyden-mixing scheme, WC =      100.0
 initial mixing is a Kerker type mixing with AMIX =  0.4000 and BMIX =      1.0000
 Hartree-type preconditioning will be used
 using additional bands          120
 real space projection scheme for non local part
 use partial core corrections
 calculate Harris-corrections to forces 
   (improved forces if not selfconsistent)
 use gradient corrections 
 use of overlap-Matrix (Vanderbilt PP)
 Gauss-broadening in eV      SIGMA  =   0.05


--------------------------------------------------------------------------------------------------------


  energy-cutoff  :      400.00
  volume of cell :     2391.54
      direct lattice vectors                 reciprocal lattice vectors
    13.675000191  0.000000000  0.000000000     0.073126142  0.042219398  0.000000000
    -6.837500095 11.842897562  0.000000000     0.000000000  0.084438795  0.000000000
     0.000000000  0.000000000 14.767000198     0.000000000  0.000000000  0.067718561

  length of vectors
    13.675000191 13.675000191 14.767000198     0.084438795  0.084438795  0.067718561


 
 k-points in units of 2pi/SCALE and weight: Gamma points only                       
   0.00000000  0.00000000  0.00000000       1.000
 
 k-points in reciprocal lattice and weights: Gamma points only                       
   0.00000000  0.00000000  0.00000000       1.000
 
 position of ions in fractional coordinates (direct lattice) 
   0.89951443  0.09851480  0.11804283
   0.10646705  0.89064036  0.87799996
   0.89403422  0.79490711  0.12884659
   0.09573922  0.19684359  0.86433813
   0.19703894  0.10510656  0.11488240
   0.80313992  0.90650767  0.87889651
   0.55617359  0.42792233  0.45416564
   0.76429130  0.23463287  0.21762613
   0.56621572  0.14172827  0.47028657
   0.76786735  0.54072058  0.20505101
   0.86639994  0.42829077  0.45846293
   0.46525035  0.23653350  0.18250601
   0.23099263  0.77700764  0.77366569
   0.42550039  0.57129270  0.52452070
   0.23412281  0.45261862  0.77195989
   0.42985757  0.85293631  0.52960446
   0.53466714  0.75809144  0.80455305
   0.12521201  0.56142074  0.53271435
   0.97776025  0.31719588  0.15942788
   0.02232225  0.67034249  0.84093245
   0.67776894  0.67329471  0.17113780
   0.31398424  0.31788813  0.81797419
   0.31903987  0.01573827  0.17696911
   0.66383239  0.98187361  0.82641192
   0.32611248  0.98690927  0.83769732
   0.67816085  0.00519752  0.16146891
   0.67263342  0.67295618  0.81284870
   0.33357379  0.32477263  0.15620491
   0.02007200  0.33919327  0.83195597
   0.98834388  0.67057545  0.17012783
   0.64734362  0.64195665  0.50268228
   0.34224460  0.99464514  0.47481300
   0.99528053  0.33933054  0.49780531
   0.33859164  0.35233146  0.48027234
   0.98746652  0.64467714  0.50391247
   0.65098133  0.00920258  0.51481849
   0.11853675  0.24416988  0.12947170
   0.88710309  0.75030238  0.85215361
   0.76185159  0.87934878  0.11004929
   0.23060735  0.11008801  0.86953391
   0.11269249  0.88408607  0.12776792
   0.87655737  0.12521212  0.85829610
   0.77603115  0.55873639  0.46566301
   0.53641066  0.08727886  0.17459337
   0.41609120  0.21119732  0.46651254
   0.90326201  0.45428211  0.19661287
   0.78427830  0.20876966  0.45265886
   0.54788197  0.45635895  0.19414865
   0.44728801  0.89269499  0.80667116
   0.21026320  0.42882735  0.54009966
   0.12306224  0.55730815  0.80118783
   0.58022947  0.78923779  0.51961665
   0.45223950  0.53581501  0.79938600
   0.20305767  0.77763735  0.54611661
   0.99990889  0.25894232  0.99422624
   0.99077817  0.73239571  0.00128589
   0.73640281  0.71573127  0.99824172
   0.25565172  0.26672254  0.99055407
   0.26840745  0.00111655  0.00295465
   0.66195483  0.59125747  0.33272575
   0.63294943  0.05063865  0.34123964
   0.44042225  0.10847500  0.32437040
   0.92270770  0.59021149  0.33391035
   0.93979248  0.34445518  0.32924408
   0.40560944  0.32351498  0.32123799
   0.36092941  0.95206586  0.66637698
   0.35406522  0.41033122  0.65354255
   0.05990394  0.40857519  0.66505159
   0.57554669  0.89733813  0.66664137
   0.57032228  0.66118117  0.66025118
   0.05252985  0.63925285  0.66986614
   0.73331759  0.01358152  0.99315665
   0.74227474  0.33681757  0.79696034
   0.71404814  0.37405389  0.63485756
   0.99733926  0.22905169  0.10103239
   0.00270810  0.76326668  0.89454704
   0.76665758  0.76454665  0.09917763
   0.22312327  0.22258738  0.88673007
   0.22395050  0.00248568  0.10556287
   0.77139304  0.00358349  0.88821543
   0.23224909  0.99658585  0.89714860
   0.76997675  0.99948970  0.09833124
   0.22626190  0.23446862  0.09741864
   0.99815925  0.22841901  0.88830963
   0.99540424  0.77034080  0.10650191
   0.66034563  0.55417526  0.43680506
   0.44009261  0.11047313  0.43466582
   0.89433062  0.56270455  0.22663847
   0.89385205  0.32848054  0.43245150
   0.43870409  0.33478246  0.21447761
   0.89191767  0.33399069  0.22554978
   0.42962398  0.32740473  0.42903919
   0.44103171  0.11207141  0.21565466
   0.88816559  0.55426334  0.43856312
   0.66503801  0.56527116  0.22550959
   0.65704511  0.10193791  0.44148075
   0.34137942  0.90384235  0.76694823
   0.33232950  0.43835905  0.55100487
   0.10956797  0.43881226  0.76780518
   0.55881140  0.88998742  0.55748069
   0.55692381  0.65794743  0.76959635
   0.09315908  0.66011945  0.56378223
   0.55737286  0.66698379  0.55220262
   0.10992303  0.66380112  0.77063530
   0.09531287  0.43214510  0.55941497
   0.55500619  0.88249405  0.77448166
   0.33782619  0.42849118  0.76087552
   0.77471275  0.76957399  0.89056975
   0.65676987  0.09631674  0.23043224
   0.33263867  0.90082624  0.55609355
   0.56457046  0.02841028  0.03536667
   0.31965523  0.67299942  0.47922758
   0.77127616  0.58577438  0.77450211
   0.74232869  0.41059162  0.72726675
 
 position of ions in cartesian coordinates  (Angst):
  11.62726502  1.16670067  1.74313843
  -4.63381662 10.54776259 12.96542555
   6.79074075  9.41400343  1.90267766
  -0.03668412  2.33119841 12.76368127
   1.97584137  1.24476627  1.69646850
   4.78469232 10.73567746 12.97866498
   4.67975498  5.06784026  6.70666413
   8.84738142  2.77873307  3.21368504
   6.77393302  1.67847342  6.94472183
   6.80340911  6.40369847  3.02798829
   8.91958117  5.07220368  6.77012221
   4.74500075  2.80124199  2.69506626
  -2.15396554  9.20202188 11.42472134
   1.91250399  6.76576092  7.74559729
   0.10684964  5.36031591 11.39953189
   0.04635030 10.10123732  7.82066914
   2.12812299  8.97799927 11.88083506
  -2.12644014  6.64884833  7.86659296
  11.20204475  3.75651830  2.35427155
  -4.27821008  7.93879743 12.41804961
   4.66483772  7.97376031  2.52719190
   2.12017447  3.76471654 12.07902497
   4.25525991  0.18638675  2.61330282
   2.36434718 11.62822864 12.20362492
  -2.28840398 11.68786538 12.37027649
   9.23831170  0.06155376  2.38441144
   4.59692422  7.96975109 12.00333689
   2.34098871  3.84624900  2.30667797
  -2.04474944  4.01703110 12.28549392
   8.93054299  7.94155641  2.51227765
   4.46304552  7.60262679  7.42310926
  -2.12069118 11.77948046  7.01156365
  11.29028881  4.01865685  7.35109110
   2.22117427  4.17262540  7.09218181
   9.09562482  7.63484535  7.44127554
   8.83924713  0.10898526  7.60232472
  -0.04852147  2.89167889  1.91190861
   7.00094227  8.88575423 12.58375259
   4.40577326 10.41403751  1.62509786
   2.40082872  1.30376106 12.84040740
  -4.50386875 10.47014071  1.88674896
  11.13078425  1.48287433 12.67445863
   6.79186599  6.61705787  6.87644583
   6.73864669  1.03363459  2.57822029
   4.24598547  2.50118826  6.88899074
   9.24595423  5.38001652  2.90338235
   9.29754328  2.47243775  6.68441353
   4.37193170  5.40461231  2.86699315
   0.01286162 10.57209528 11.91211323
  -0.05675775  5.07855836  7.97565176
  -2.12771841  6.60014334 11.83114084
   2.53822461  9.34686226  7.67317925
   2.52074010  6.34560233 11.80453320
  -2.54028185  9.20947953  8.06450404
  11.90323614  3.06662743 14.68173913
   8.54113589  8.67368736  0.01898876
   5.17649590  8.47633209 14.74103570
   1.67232199  3.15876771 14.62751213
   3.66283757  0.01322317  0.04363127
   5.00950945  7.00220164  4.91336118
   8.30934187  0.59970833  5.03908580
   5.28107648  1.28465832  4.78997772
   8.58245677  6.98981425  4.93085422
  10.49645010  4.07934738  4.86194746
   3.33467542  3.83135482  4.74372144
  -1.57404063 11.27521841  9.84038902
   2.03620217  4.85951060  9.65086292
  -1.97444648  4.83871406  9.82081697
   1.73505154 10.62708357  9.84429320
   3.27833102  7.83030090  9.74992927
  -3.65254570  7.57060596  9.89191345
   9.93525456  0.16084451 14.66594438
   7.84761701  3.98889601 11.76871344
   7.20701487  4.42988192  9.37494171
  12.07247369  2.71263566  1.49194539
  -5.18180276  9.03928906 13.20977632
   5.25645472  9.05444765  1.46455608
   1.52926953  2.63607957 13.09434314
   3.04552728  0.02943765  1.55884693
  10.52429790  0.04243894 13.11627741
  -3.63814948 11.80246410 13.24819356
   3.69542131 11.83685415  1.45205748
   1.49095233  2.77678790  1.43858114
  12.08801293  2.70514289 13.11766841
   8.34494791  9.12306721  1.57271371
   5.24105326  6.56304084  6.45030048
   5.26290652  1.30832201  6.41871032
   8.38247897  6.66405229  3.34677035
   9.97744133  3.89016134  6.38601139
   3.71020348  3.96479438  3.16719087
   9.91331289  3.95541759  3.33069366
   3.63647805  3.87742072  6.33562187
   5.26482049  1.32725025  3.18457243
   8.35588896  6.56408393  6.47626167
   5.22935332  6.69444850  3.33010023
   8.28809152  1.20724020  6.51934636
  -1.51165852 10.70411232 11.32552469
   1.54732593  5.19144130  8.13668909
  -1.50203694  5.19680869 11.33817922
   1.55645686 10.54002988  8.23231743
   3.11721764  7.79200400 11.36462943
  -3.23961635  7.81772699  8.32537227
   3.06157223  7.89902068  8.15437619
  -3.03554277  7.86132869 11.37997158
  -1.65138861  5.11785010  8.26088103
   1.55565668 10.45128659 11.43677088
   1.68996475  5.07457714 11.23584889
   5.33223471  9.11398598 13.15104368
   8.32276241  1.14066924  3.40279290
  -1.61056571 10.66839293  8.21183357
   7.52624590  0.33646000  0.52225969
  -0.23034832  7.97026324  7.07675382
   6.54196921  6.93726598 11.43707288
   7.34392470  4.86259450 10.73954819
 


--------------------------------------------------------------------------------------------------------


 k-point  1 :   0.0000 0.0000 0.0000  plane waves:   43405

 maximum and minimum number of plane-waves per node :     10852    10850

 maximum number of plane-waves:     43405
 maximum index in each direction: 
   IXMAX=   22   IYMAX=   22   IZMAX=   24
   IXMIN=  -22   IYMIN=  -22   IZMIN=  -24


 real space projection operators:
  total allocation   :      30798.08 KBytes
  max/ min on nodes  :       7867.56       7527.55


 parallel 3D FFT for wavefunctions:
    minimum data exchange during FFTs selected (reduces bandwidth)
 parallel 3D FFT for charge:
    minimum data exchange during FFTs selected (reduces bandwidth)


 total amount of memory used by VASP MPI-rank0   211529. kBytes
=======================================================================

   base      :      30000. kBytes
   nonlr-proj:      18812. kBytes
   fftplans  :      63994. kBytes
   grid      :      59474. kBytes
   one-center:        902. kBytes
   wavefun   :      38347. kBytes
 
     INWAV:  cpu time    0.0000: real time    0.0002
 Broyden mixing: mesh for mixing (old mesh)
   NGX = 45   NGY = 45   NGZ = 49
  (NGX  =180   NGY  =180   NGZ  =192)
  gives a total of  99225 points

 initial charge density was supplied:
 charge density of overlapping atoms calculated
 number of electron     624.0000000 magnetization     114.0000000
 keeping initial charge density in first step


--------------------------------------------------------------------------------------------------------


 Maximum index for non-local projection operator         1313
 Maximum index for augmentation-charges         7863 (set IRDMAX)


--------------------------------------------------------------------------------------------------------


 First call to EWALD:  gamma=   0.133
 Maximum number of real-space cells 3x 3x 3
 Maximum number of reciprocal cells 3x 3x 3

    FEWALD:  cpu time    0.0068: real time    0.0068


--------------------------------------- Iteration      1(   1)  ---------------------------------------


    POTLOK:  cpu time    0.5902: real time    0.6109
    SETDIJ:  cpu time    0.4688: real time    0.4699
     EDDAV:  cpu time   15.7170: real time   15.7590
       DOS:  cpu time    0.0006: real time    0.0006
    --------------------------------------------
      LOOP:  cpu time   16.7766: real time   16.8405

 eigenvalue-minimisations  :  1800
 total energy-change (2. order) : 0.4411814E+04  (-0.2611217E+05)
 number of electron     624.0000000 magnetization     114.0000000
 augmentation part      624.0000000 magnetization     114.0000000

 Free energy of the ion-electron system (eV)
  ---------------------------------------------------
  alpha Z        PSCENC =       651.60147728
  Ewald energy   TEWEN  =     -7024.30379482
  -Hartree energ DENC   =    -28496.83138101
  -exchange      EXHF   =         0.00000000
  -V(xc)+E(xc)   XCENC  =      1688.20484289
  PAW double counting   =     22097.86014188   -21415.35477417
  entropy T*S    EENTRO =        -0.03877784
  eigenvalues    EBANDS =     -2027.61604125
  atomic energy  EATOM  =     38938.29198303
  Solvation  Ediel_sol  =         0.00000000
  ---------------------------------------------------
  free energy    TOTEN  =      4411.81367599 eV

  energy without entropy =     4411.85245384  energy(sigma->0) =     4411.83306491


--------------------------------------------------------------------------------------------------------




--------------------------------------- Iteration      1(   2)  ---------------------------------------


     EDDAV:  cpu time   17.8101: real time   17.8623
       DOS:  cpu time    0.0003: real time    0.0003
    --------------------------------------------
      LOOP:  cpu time   17.8103: real time   17.8626

 eigenvalue-minimisations  :  2096
 total energy-change (2. order) :-0.4836232E+04  (-0.4659625E+04)
 number of electron     624.0000000 magnetization     114.0000000
 augmentation part      624.0000000 magnetization     114.0000000

 Free energy of the ion-electron system (eV)
  ---------------------------------------------------
  alpha Z        PSCENC =       651.60147728
  Ewald energy   TEWEN  =     -7024.30379482
  -Hartree energ DENC   =    -28496.83138101
  -exchange      EXHF   =         0.00000000
  -V(xc)+E(xc)   XCENC  =      1688.20484289
  PAW double counting   =     22097.86014188   -21415.35477417
  entropy T*S    EENTRO =        -0.00000000
  eigenvalues    EBANDS =     -6863.88667641
  atomic energy  EATOM  =     38938.29198303
  Solvation  Ediel_sol  =         0.00000000
  ---------------------------------------------------
  free energy    TOTEN  =      -424.41818132 eV

  energy without entropy =     -424.41818132  energy(sigma->0) =     -424.41818132


--------------------------------------------------------------------------------------------------------




--------------------------------------- Iteration      1(   3)  ---------------------------------------


     EDDAV:  cpu time   18.0198: real time   18.0648
       DOS:  cpu time    0.0003: real time    0.0003
    --------------------------------------------
      LOOP:  cpu time   18.0201: real time   18.0651

 eigenvalue-minimisations  :  2128
 total energy-change (2. order) :-0.5199657E+03  (-0.5162472E+03)
 number of electron     624.0000000 magnetization     114.0000000
 augmentation part      624.0000000 magnetization     114.0000000

 Free energy of the ion-electron system (eV)
  ---------------------------------------------------
  alpha Z        PSCENC =       651.60147728
  Ewald energy   TEWEN  =     -7024.30379482
  -Hartree energ DENC   =    -28496.83138101
  -exchange      EXHF   =         0.00000000
  -V(xc)+E(xc)   XCENC  =      1688.20484289
  PAW double counting   =     22097.86014188   -21415.35477417
  entropy T*S    EENTRO =        -0.00000000
  eigenvalues    EBANDS =     -7383.85236605
  atomic energy  EATOM  =     38938.29198303
  Solvation  Ediel_sol  =         0.00000000
  ---------------------------------------------------
  free energy    TOTEN  =      -944.38387096 eV

  energy without entropy =     -944.38387096  energy(sigma->0) =     -944.38387096


--------------------------------------------------------------------------------------------------------




--------------------------------------- Iteration      1(   4)  ---------------------------------------


     EDDAV:  cpu time   18.0139: real time   18.0625
       DOS:  cpu time    0.0003: real time    0.0003
    --------------------------------------------
      LOOP:  cpu time   18.0142: real time   18.0628

 eigenvalue-minimisations  :  2136
 total energy-change (2. order) :-0.1043402E+02  (-0.1039497E+02)
 number of electron     624.0000000 magnetization     114.0000000
 augmentation part      624.0000000 magnetization     114.0000000

 Free energy of the ion-electron system (eV)
  ---------------------------------------------------
  alpha Z        PSCENC =       651.60147728
  Ewald energy   TEWEN  =     -7024.30379482
  -Hartree energ DENC   =    -28496.83138101
  -exchange      EXHF   =         0.00000000
  -V(xc)+E(xc)   XCENC  =      1688.20484289
  PAW double counting   =     22097.86014188   -21415.35477417
  entropy T*S    EENTRO =        -0.00000000
  eigenvalues    EBANDS =     -7394.28638577
  atomic energy  EATOM  =     38938.29198303
  Solvation  Ediel_sol  =         0.00000000
  ---------------------------------------------------
  free energy    TOTEN  =      -954.81789069 eV

  energy without entropy =     -954.81789069  energy(sigma->0) =     -954.81789069


--------------------------------------------------------------------------------------------------------




--------------------------------------- Iteration      1(   5)  ---------------------------------------


     EDDAV:  cpu time   18.1697: real time   18.2142
       DOS:  cpu time    0.0003: real time    0.0003
    CHARGE:  cpu time    1.3044: real time    1.3075
    MIXING:  cpu time    0.0120: real time    0.0121
    --------------------------------------------
      LOOP:  cpu time   19.4864: real time   19.5341

 eigenvalue-minimisations  :  2152
 total energy-change (2. order) :-0.2731391E+00  (-0.2727508E+00)
 number of electron     624.0000003 magnetization      86.0401199
 augmentation part       70.2292971 magnetization      87.2382159

 Broyden mixing:
  rms(total) = 0.87256E+01    rms(broyden)= 0.87213E+01
  rms(prec ) = 0.95391E+01
  weight for this iteration     100.00

 Free energy of the ion-electron system (eV)
  ---------------------------------------------------
  alpha Z        PSCENC =       651.60147728
  Ewald energy   TEWEN  =     -7024.30379482
  -Hartree energ DENC   =    -28496.83138101
  -exchange      EXHF   =         0.00000000
  -V(xc)+E(xc)   XCENC  =      1688.20484289
  PAW double counting   =     22097.86014188   -21415.35477417
  entropy T*S    EENTRO =        -0.00000000
  eigenvalues    EBANDS =     -7394.55952483
  atomic energy  EATOM  =     38938.29198303
  Solvation  Ediel_sol  =         0.00000000
  ---------------------------------------------------
  free energy    TOTEN  =      -955.09102974 eV

  energy without entropy =     -955.09102974  energy(sigma->0) =     -955.09102974


--------------------------------------------------------------------------------------------------------




--------------------------------------- Iteration      1(   6)  ---------------------------------------


    POTLOK:  cpu time    0.5876: real time    0.5939
    SETDIJ:  cpu time    0.4615: real time    0.4626
     EDDAV:  cpu time   17.1991: real time   17.2398
       DOS:  cpu time    0.0003: real time    0.0003
    CHARGE:  cpu time    1.3141: real time    1.3172
    MIXING:  cpu time    0.0119: real time    0.0120
    --------------------------------------------
      LOOP:  cpu time   19.5745: real time   19.6258

 eigenvalue-minimisations  :  2024
 total energy-change (2. order) : 0.3546041E+03  (-0.7217043E+02)
 number of electron     624.0000003 magnetization      63.3436310
 augmentation part       62.1828148 magnetization      59.3482466

 Broyden mixing:
  rms(total) = 0.28119E+01    rms(broyden)= 0.28081E+01
  rms(prec ) = 0.30419E+01
  weight for this iteration     100.00

 eigenvalues of (default mixing * dielectric matrix)
  average eigenvalue GAMMA=   1.0003
  1.0003

 Free energy of the ion-electron system (eV)
  ---------------------------------------------------
  alpha Z        PSCENC =       651.60147728
  Ewald energy   TEWEN  =     -7024.30379482
  -Hartree energ DENC   =    -29888.08817644
  -exchange      EXHF   =         0.00000000
  -V(xc)+E(xc)   XCENC  =      1944.08778864
  PAW double counting   =     25886.85533266   -25228.03555284
  entropy T*S    EENTRO =        -0.00000000
  eigenvalues    EBANDS =     -5880.89598980
  atomic energy  EATOM  =     38938.29198303
  Solvation  Ediel_sol  =         0.00000000
  ---------------------------------------------------
  free energy    TOTEN  =      -600.48693229 eV

  energy without entropy =     -600.48693229  energy(sigma->0) =     -600.48693229


--------------------------------------------------------------------------------------------------------




--------------------------------------- Iteration      1(   7)  ---------------------------------------


    POTLOK:  cpu time    0.5875: real time    0.5900
    SETDIJ:  cpu time    0.4604: real time    0.4615
     EDDAV:  cpu time   17.6975: real time   17.7414
       DOS:  cpu time    0.0003: real time    0.0003
    CHARGE:  cpu time    1.2903: real time    1.2933
    MIXING:  cpu time    0.0130: real time    0.0130
    --------------------------------------------
      LOOP:  cpu time   20.0489: real time   20.0995

 eigenvalue-minimisations  :  2096
 total energy-change (2. order) :-0.8955870E+02  (-0.8439115E+01)
 number of electron     624.0000003 magnetization      42.2604532
 augmentation part       59.4953934 magnetization      38.7024473

 Broyden mixing:
  rms(total) = 0.19296E+01    rms(broyden)= 0.19290E+01
  rms(prec ) = 0.20285E+01
  weight for this iteration     100.00

 eigenvalues of (default mixing * dielectric matrix)
  average eigenvalue GAMMA=   1.0477
  1.0477  1.0477

 Free energy of the ion-electron system (eV)
  ---------------------------------------------------
  alpha Z        PSCENC =       651.60147728
  Ewald energy   TEWEN  =     -7024.30379482
  -Hartree energ DENC   =    -30321.18413248
  -exchange      EXHF   =         0.00000000
  -V(xc)+E(xc)   XCENC  =      1904.77742965
  PAW double counting   =     27280.98317978   -26625.05473542
  entropy T*S    EENTRO =        -0.00000000
  eigenvalues    EBANDS =     -5495.15703970
  atomic energy  EATOM  =     38938.29198303
  Solvation  Ediel_sol  =         0.00000000
  ---------------------------------------------------
  free energy    TOTEN  =      -690.04563268 eV

  energy without entropy =     -690.04563268  energy(sigma->0) =     -690.04563268


--------------------------------------------------------------------------------------------------------




--------------------------------------- Iteration      1(   8)  ---------------------------------------


    POTLOK:  cpu time    0.5894: real time    0.5965
    SETDIJ:  cpu time    0.4607: real time    0.4618
     EDDAV:  cpu time   17.5333: real time   17.5764
       DOS:  cpu time    0.0003: real time    0.0003
    CHARGE:  cpu time    1.3008: real time    1.3039
    MIXING:  cpu time    0.0129: real time    0.0129
    --------------------------------------------
      LOOP:  cpu time   19.8975: real time   19.9519

 eigenvalue-minimisations  :  2064
 total energy-change (2. order) :-0.6987183E+02  (-0.2984712E+01)
 number of electron     624.0000003 magnetization      19.0534146
 augmentation part       59.8462562 magnetization      16.4698512

 Broyden mixing:
  rms(total) = 0.11032E+01    rms(broyden)= 0.11030E+01
  rms(prec ) = 0.11493E+01
  weight for this iteration     100.00

 eigenvalues of (default mixing * dielectric matrix)
  average eigenvalue GAMMA=   1.3841
  2.2524  1.1810  0.7190

 Free energy of the ion-electron system (eV)
  ---------------------------------------------------
  alpha Z        PSCENC =       651.60147728
  Ewald energy   TEWEN  =     -7024.30379482
  -Hartree energ DENC   =    -30392.55223531
  -exchange      EXHF   =         0.00000000
  -V(xc)+E(xc)   XCENC  =      1857.59934807
  PAW double counting   =     27696.88842232   -27039.28332633
  entropy T*S    EENTRO =        -0.00000000
  eigenvalues    EBANDS =     -5448.15933460
  atomic energy  EATOM  =     38938.29198303
  Solvation  Ediel_sol  =         0.00000000
  ---------------------------------------------------
  free energy    TOTEN  =      -759.91746037 eV

  energy without entropy =     -759.91746037  energy(sigma->0) =     -759.91746037


--------------------------------------------------------------------------------------------------------




--------------------------------------- Iteration      1(   9)  ---------------------------------------


    POTLOK:  cpu time    0.5872: real time    0.5901
    SETDIJ:  cpu time    0.4608: real time    0.4619
     EDDAV:  cpu time   17.4399: real time   17.4812
       DOS:  cpu time    0.0003: real time    0.0003
    CHARGE:  cpu time    1.3193: real time    1.3224
    MIXING:  cpu time    0.0129: real time    0.0130
    --------------------------------------------
      LOOP:  cpu time   19.8204: real time   19.8689

 eigenvalue-minimisations  :  2056
 total energy-change (2. order) :-0.7721966E+02  (-0.5701024E+01)
 number of electron     624.0000003 magnetization      13.3481946
 augmentation part       59.7046644 magnetization      12.0317093

 Broyden mixing:
  rms(total) = 0.48956E+00    rms(broyden)= 0.48886E+00
  rms(prec ) = 0.51232E+00
  weight for this iteration     100.00

 eigenvalues of (default mixing * dielectric matrix)
  average eigenvalue GAMMA=   1.2911
  2.4599  1.2355  0.7535  0.7155

 Free energy of the ion-electron system (eV)
  ---------------------------------------------------
  alpha Z        PSCENC =       651.60147728
  Ewald energy   TEWEN  =     -7024.30379482
  -Hartree energ DENC   =    -30509.05104444
  -exchange      EXHF   =         0.00000000
  -V(xc)+E(xc)   XCENC  =      1811.19884983
  PAW double counting   =     28135.46962348   -27477.36210303
  entropy T*S    EENTRO =        -0.00000000
  eigenvalues    EBANDS =     -5362.98211146
  atomic energy  EATOM  =     38938.29198303
  Solvation  Ediel_sol  =         0.00000000
  ---------------------------------------------------
  free energy    TOTEN  =      -837.13712014 eV

  energy without entropy =     -837.13712014  energy(sigma->0) =     -837.13712014


--------------------------------------------------------------------------------------------------------




--------------------------------------- Iteration      1(  10)  ---------------------------------------


    POTLOK:  cpu time    0.5875: real time    0.5948
    SETDIJ:  cpu time    0.4618: real time    0.4629
     EDDAV:  cpu time   17.8637: real time   17.9060
       DOS:  cpu time    0.0003: real time    0.0003
    CHARGE:  cpu time    1.2972: real time    1.3003
    MIXING:  cpu time    0.0135: real time    0.0135
    --------------------------------------------
      LOOP:  cpu time   20.2239: real time   20.2778

 eigenvalue-minimisations  :  2120
 total energy-change (2. order) :-0.1441299E+02  (-0.8308652E+00)
 number of electron     624.0000003 magnetization       5.3102528
 augmentation part       59.3262123 magnetization       4.5195280

 Broyden mixing:
  rms(total) = 0.34966E+00    rms(broyden)= 0.34919E+00
  rms(prec ) = 0.37192E+00
  weight for this iteration     100.00

 eigenvalues of (default mixing * dielectric matrix)
  average eigenvalue GAMMA=   1.4478
  2.7381  1.9495  0.9501  0.9501  0.6514

 Free energy of the ion-electron system (eV)
  ---------------------------------------------------
  alpha Z        PSCENC =       651.60147728
  Ewald energy   TEWEN  =     -7024.30379482
  -Hartree energ DENC   =    -30519.78632780
  -exchange      EXHF   =         0.00000000
  -V(xc)+E(xc)   XCENC  =      1803.43888973
  PAW double counting   =     28126.27608150   -27468.39096415
  entropy T*S    EENTRO =        -0.00000000
  eigenvalues    EBANDS =     -5358.67745140
  atomic energy  EATOM  =     38938.29198303
  Solvation  Ediel_sol  =         0.00000000
  ---------------------------------------------------
  free energy    TOTEN  =      -851.55010663 eV

  energy without entropy =     -851.55010663  energy(sigma->0) =     -851.55010663


--------------------------------------------------------------------------------------------------------




--------------------------------------- Iteration      1(  11)  ---------------------------------------


    POTLOK:  cpu time    0.5897: real time    0.5934
    SETDIJ:  cpu time    0.4624: real time    0.4634
     EDDAV:  cpu time   16.7580: real time   16.7978
       DOS:  cpu time    0.0003: real time    0.0003
    CHARGE:  cpu time    1.2926: real time    1.2956
    MIXING:  cpu time    0.0143: real time    0.0143
    --------------------------------------------
      LOOP:  cpu time   19.1173: real time   19.1649

 eigenvalue-minimisations  :  1944
 total energy-change (2. order) :-0.1611242E+02  (-0.1067813E+01)
 number of electron     624.0000003 magnetization       2.6609297
 augmentation part       59.3666555 magnetization       2.3974134

 Broyden mixing:
  rms(total) = 0.16651E+00    rms(broyden)= 0.16606E+00
  rms(prec ) = 0.17987E+00
  weight for this iteration     100.00

 eigenvalues of (default mixing * dielectric matrix)
  average eigenvalue GAMMA=   1.4254
  3.2167  1.9730  1.1531  0.7841  0.7841  0.6412

 Free energy of the ion-electron system (eV)
  ---------------------------------------------------
  alpha Z        PSCENC =       651.60147728
  Ewald energy   TEWEN  =     -7024.30379482
  -Hartree energ DENC   =    -30461.33047715
  -exchange      EXHF   =         0.00000000
  -V(xc)+E(xc)   XCENC  =      1789.64137841
  PAW double counting   =     27925.20166191   -27266.57360205
  entropy T*S    EENTRO =        -0.00000000
  eigenvalues    EBANDS =     -5420.19115202
  atomic energy  EATOM  =     38938.29198303
  Solvation  Ediel_sol  =         0.00000000
  ---------------------------------------------------
  free energy    TOTEN  =      -867.66252541 eV

  energy without entropy =     -867.66252541  energy(sigma->0) =     -867.66252541


--------------------------------------------------------------------------------------------------------




--------------------------------------- Iteration      1(  12)  ---------------------------------------


    POTLOK:  cpu time    0.5893: real time    0.5974
    SETDIJ:  cpu time    0.4609: real time    0.4620
     EDDAV:  cpu time   17.0291: real time   17.0702
       DOS:  cpu time    0.0003: real time    0.0003
    CHARGE:  cpu time    1.2878: real time    1.2909
    MIXING:  cpu time    0.0142: real time    0.0142
    --------------------------------------------
      LOOP:  cpu time   19.3818: real time   19.4352

 eigenvalue-minimisations  :  1992
 total energy-change (2. order) :-0.2625391E+01  (-0.1443728E+00)
 number of electron     624.0000003 magnetization       0.8544984
 augmentation part       59.2700227 magnetization       0.7181170

 Broyden mixing:
  rms(total) = 0.91188E-01    rms(broyden)= 0.91051E-01
  rms(prec ) = 0.10693E+00
  weight for this iteration     100.00

 eigenvalues of (default mixing * dielectric matrix)
  average eigenvalue GAMMA=   1.4990
  3.7232  2.2936  1.2951  0.9391  0.9391  0.6740  0.6292

 Free energy of the ion-electron system (eV)
  ---------------------------------------------------
  alpha Z        PSCENC =       651.60147728
  Ewald energy   TEWEN  =     -7024.30379482
  -Hartree energ DENC   =    -30447.66212609
  -exchange      EXHF   =         0.00000000
  -V(xc)+E(xc)   XCENC  =      1787.46160482
  PAW double counting   =     27905.72101519   -27247.19397155
  entropy T*S    EENTRO =        -0.00000000
  eigenvalues    EBANDS =     -5434.20410378
  atomic energy  EATOM  =     38938.29198303
  Solvation  Ediel_sol  =         0.00000000
  ---------------------------------------------------
  free energy    TOTEN  =      -870.28791593 eV

  energy without entropy =     -870.28791593  energy(sigma->0) =     -870.28791593


--------------------------------------------------------------------------------------------------------




--------------------------------------- Iteration      1(  13)  ---------------------------------------


    POTLOK:  cpu time    0.6257: real time    0.6282
    SETDIJ:  cpu time    0.4596: real time    0.4607
     EDDAV:  cpu time   16.7725: real time   16.8144
       DOS:  cpu time    0.0003: real time    0.0003
    CHARGE:  cpu time    1.2876: real time    1.2906
    MIXING:  cpu time    0.0147: real time    0.0147
    --------------------------------------------
      LOOP:  cpu time   19.1604: real time   19.2089

 eigenvalue-minimisations  :  1952
 total energy-change (2. order) :-0.1160000E+01  (-0.5141970E-01)
 number of electron     624.0000003 magnetization       0.3763436
 augmentation part       59.3182871 magnetization       0.3240105

 Broyden mixing:
  rms(total) = 0.41448E-01    rms(broyden)= 0.41361E-01
  rms(prec ) = 0.52401E-01
  weight for this iteration     100.00

 eigenvalues of (default mixing * dielectric matrix)
  average eigenvalue GAMMA=   1.4653
  3.8695  2.3518  1.3577  1.0383  0.9077  0.9077  0.6545  0.6354

 Free energy of the ion-electron system (eV)
  ---------------------------------------------------
  alpha Z        PSCENC =       651.60147728
  Ewald energy   TEWEN  =     -7024.30379482
  -Hartree energ DENC   =    -30421.91386170
  -exchange      EXHF   =         0.00000000
  -V(xc)+E(xc)   XCENC  =      1785.36305330
  PAW double counting   =     27867.11749134   -27208.53840588
  entropy T*S    EENTRO =        -0.00000000
  eigenvalues    EBANDS =     -5459.06585814
  atomic energy  EATOM  =     38938.29198303
  Solvation  Ediel_sol  =         0.00000000
  ---------------------------------------------------
  free energy    TOTEN  =      -871.44791559 eV

  energy without entropy =     -871.44791559  energy(sigma->0) =     -871.44791559


--------------------------------------------------------------------------------------------------------




--------------------------------------- Iteration      1(  14)  ---------------------------------------


    POTLOK:  cpu time    0.5875: real time    0.5937
    SETDIJ:  cpu time    0.4599: real time    0.4610
     EDDAV:  cpu time   16.9788: real time   17.0196
       DOS:  cpu time    0.0004: real time    0.0003
    CHARGE:  cpu time    1.2896: real time    1.2927
    MIXING:  cpu time    0.0164: real time    0.0164
    --------------------------------------------
      LOOP:  cpu time   19.3325: real time   19.3837

 eigenvalue-minimisations  :  1976
 total energy-change (2. order) :-0.1249869E+00  (-0.5634804E-02)
 number of electron     624.0000003 magnetization       0.1337930
 augmentation part       59.3068863 magnetization       0.1158899

 Broyden mixing:
  rms(total) = 0.23915E-01    rms(broyden)= 0.23885E-01
  rms(prec ) = 0.32322E-01
  weight for this iteration     100.00

 eigenvalues of (default mixing * dielectric matrix)
  average eigenvalue GAMMA=   1.4599
  3.9560  2.3539  1.5847  1.0749  1.0749  1.0285  0.7849  0.6407  0.6407

 Free energy of the ion-electron system (eV)
  ---------------------------------------------------
  alpha Z        PSCENC =       651.60147728
  Ewald energy   TEWEN  =     -7024.30379482
  -Hartree energ DENC   =    -30412.92812832
  -exchange      EXHF   =         0.00000000
  -V(xc)+E(xc)   XCENC  =      1784.91788896
  PAW double counting   =     27868.93957186   -27210.40804556
  entropy T*S    EENTRO =        -0.00000000
  eigenvalues    EBANDS =     -5467.68385495
  atomic energy  EATOM  =     38938.29198303
  Solvation  Ediel_sol  =         0.00000000
  ---------------------------------------------------
  free energy    TOTEN  =      -871.57290252 eV

  energy without entropy =     -871.57290252  energy(sigma->0) =     -871.57290252


--------------------------------------------------------------------------------------------------------




--------------------------------------- Iteration      1(  15)  ---------------------------------------


    POTLOK:  cpu time    0.5887: real time    0.5926
    SETDIJ:  cpu time    0.4606: real time    0.4616
     EDDAV:  cpu time   17.8411: real time   17.8837
       DOS:  cpu time    0.0003: real time    0.0003
    CHARGE:  cpu time    1.2883: real time    1.2913
    MIXING:  cpu time    0.0162: real time    0.0162
    --------------------------------------------
      LOOP:  cpu time   20.1952: real time   20.2457

 eigenvalue-minimisations  :  2112
 total energy-change (2. order) :-0.1421384E-01  (-0.1105565E-02)
 number of electron     624.0000003 magnetization       0.0546447
 augmentation part       59.3097349 magnetization       0.0487784

 Broyden mixing:
  rms(total) = 0.12782E-01    rms(broyden)= 0.12766E-01
  rms(prec ) = 0.17704E-01
  weight for this iteration     100.00

 eigenvalues of (default mixing * dielectric matrix)
  average eigenvalue GAMMA=   1.4823
  4.0023  2.3776  2.3776  1.1221  1.1221  0.9166  0.9166  0.7263  0.6312  0.6312

 Free energy of the ion-electron system (eV)
  ---------------------------------------------------
  alpha Z        PSCENC =       651.60147728
  Ewald energy   TEWEN  =     -7024.30379482
  -Hartree energ DENC   =    -30406.20269599
  -exchange      EXHF   =         0.00000000
  -V(xc)+E(xc)   XCENC  =      1784.69057874
  PAW double counting   =     27877.30293274   -27218.78647080
  entropy T*S    EENTRO =        -0.00000000
  eigenvalues    EBANDS =     -5474.18112654
  atomic energy  EATOM  =     38938.29198303
  Solvation  Ediel_sol  =         0.00000000
  ---------------------------------------------------
  free energy    TOTEN  =      -871.58711636 eV

  energy without entropy =     -871.58711636  energy(sigma->0) =     -871.58711636


--------------------------------------------------------------------------------------------------------




--------------------------------------- Iteration      1(  16)  ---------------------------------------


    POTLOK:  cpu time    0.5884: real time    0.5963
    SETDIJ:  cpu time    0.4599: real time    0.4610
     EDDAV:  cpu time   17.3109: real time   17.3542
       DOS:  cpu time    0.0003: real time    0.0003
    CHARGE:  cpu time    1.2909: real time    1.2940
    MIXING:  cpu time    0.0162: real time    0.0163
    --------------------------------------------
      LOOP:  cpu time   19.6666: real time   19.7221

 eigenvalue-minimisations  :  2032
 total energy-change (2. order) :-0.3243688E-02  (-0.3663084E-03)
 number of electron     624.0000003 magnetization       0.0263509
 augmentation part       59.3058626 magnetization       0.0236704

 Broyden mixing:
  rms(total) = 0.81057E-02    rms(broyden)= 0.81024E-02
  rms(prec ) = 0.11052E-01
  weight for this iteration     100.00

 eigenvalues of (default mixing * dielectric matrix)
  average eigenvalue GAMMA=   1.4619
  4.0115  2.4723  2.4723  1.2264  1.0121  1.0121  0.9613  0.9613  0.6988  0.6305
  0.6225

 Free energy of the ion-electron system (eV)
  ---------------------------------------------------
  alpha Z        PSCENC =       651.60147728
  Ewald energy   TEWEN  =     -7024.30379482
  -Hartree energ DENC   =    -30402.59748113
  -exchange      EXHF   =         0.00000000
  -V(xc)+E(xc)   XCENC  =      1784.58804195
  PAW double counting   =     27884.01275173   -27225.51448825
  entropy T*S    EENTRO =        -0.00000000
  eigenvalues    EBANDS =     -5477.66884982
  atomic energy  EATOM  =     38938.29198303
  Solvation  Ediel_sol  =         0.00000000
  ---------------------------------------------------
  free energy    TOTEN  =      -871.59036005 eV

  energy without entropy =     -871.59036005  energy(sigma->0) =     -871.59036005


--------------------------------------------------------------------------------------------------------




--------------------------------------- Iteration      1(  17)  ---------------------------------------


    POTLOK:  cpu time    0.5880: real time    0.5914
    SETDIJ:  cpu time    0.4611: real time    0.4622
     EDDAV:  cpu time   17.3887: real time   17.4300
       DOS:  cpu time    0.0003: real time    0.0003
    CHARGE:  cpu time    1.2910: real time    1.2941
    MIXING:  cpu time    0.0177: real time    0.0177
    --------------------------------------------
      LOOP:  cpu time   19.7468: real time   19.7958

 eigenvalue-minimisations  :  2040
 total energy-change (2. order) :-0.6982061E-02  (-0.2238413E-03)
 number of electron     624.0000003 magnetization       0.0085779
 augmentation part       59.3087496 magnetization       0.0078032

 Broyden mixing:
  rms(total) = 0.43489E-02    rms(broyden)= 0.43412E-02
  rms(prec ) = 0.64545E-02
  weight for this iteration     100.00

 eigenvalues of (default mixing * dielectric matrix)
  average eigenvalue GAMMA=   1.4808
  4.0189  2.7191  2.7191  1.3989  1.0860  1.0860  0.9763  0.9763  0.8576  0.6801
  0.6162  0.6358

 Free energy of the ion-electron system (eV)
  ---------------------------------------------------
  alpha Z        PSCENC =       651.60147728
  Ewald energy   TEWEN  =     -7024.30379482
  -Hartree energ DENC   =    -30400.21602502
  -exchange      EXHF   =         0.00000000
  -V(xc)+E(xc)   XCENC  =      1784.51458140
  PAW double counting   =     27884.74097925   -27226.23342040
  entropy T*S    EENTRO =        -0.00000000
  eigenvalues    EBANDS =     -5479.99312283
  atomic energy  EATOM  =     38938.29198303
  Solvation  Ediel_sol  =         0.00000000
  ---------------------------------------------------
  free energy    TOTEN  =      -871.59734211 eV

  energy without entropy =     -871.59734211  energy(sigma->0) =     -871.59734211


--------------------------------------------------------------------------------------------------------




--------------------------------------- Iteration      1(  18)  ---------------------------------------


[...]
       0.000169073802744       0.000271631032776      -0.000341249812380
      -0.000021765785309      -0.000413482412259      -0.000042812912332
       0.000144516474674       0.000067957927583      -0.000380939631651
       0.000158190377101      -0.000520174483290       0.000055113439705
      -0.000107071716416       0.000146963697876      -0.000202629527950
       0.000074800242695      -0.000115879062541      -0.000588013352410
       0.000066566062031       0.000374159816700      -0.000051199568939
       0.000087898320043       0.000394147097830      -0.000264917424716
       0.000593232088957      -0.000481095383636       0.000195733649617
       0.000032028002556       0.000399764440697       0.000148980872267
       0.000622050135332       0.000092325835414      -0.000852551316169
       0.000281616155387       0.000415651268402      -0.000888509443597
       0.000551742645391      -0.000109922269437      -0.000129181676274
      -0.000498811253237       0.000142230602482      -0.000028838272900
       0.000542853001364       0.000612366960811      -0.001037692282660
       0.000026033654096       0.000003789208055      -0.000212894187599
      -0.000069263983764       0.000362162637291      -0.000769095084346
      -0.000827301302049      -0.000099019921923      -0.000033842661955
       0.000221809668477       0.000951995880206       0.000218775087462
      -0.000316593805362       0.000865548405379      -0.000819480466008
       0.000322043093051       0.000727044238643      -0.000357571105036
       0.000802100295222       0.000122083217163      -0.000097409608377
      -0.000083325970041      -0.000115455548937      -0.000774110425343
       0.000748194040675       0.000635821029757      -0.000358982045996
      -0.000078818370401       0.000433037208527      -0.000483182087826
       0.000647833038621       0.000702909974946      -0.000853148635168
       0.000220551259620      -0.001666320423354       0.000870000245584
       0.000590967922253      -0.000130205654299       0.000410164339201
      -0.000471751386344      -0.000293049982642      -0.000388240452529
      -0.000329687640807       0.000741616843800       0.000495370836834
       0.000452579406659       0.000640763038124      -0.000569525045275
      -0.000036337677245      -0.000693225379396       0.001248492439711
       0.000205357110020       0.000582377754864      -0.000526558875255
      -0.000199492872849       0.000625131305732      -0.000619826607802
       0.000709854004832       0.000395907426708      -0.000115818321801
       0.000412671495268       0.000014838644609      -0.000731054005507
      -0.000022889199718       0.000373386869784      -0.000284302860744
       0.000703817831986       0.000427691985461      -0.000071647179822
      -0.000090023653390       0.000651028553336      -0.000348476803249
       0.000510034645873       0.000077950641469      -0.000458598915425
      -0.000020430658620       0.000448565581604      -0.000124229983851
       0.000107864955883      -0.000136436380558      -0.000461205896029
       0.000936859323770       0.001616003327402      -0.000431781915767
      -0.000241956233790       0.000353067744760      -0.000828201374555
       0.001293883618850       0.000260849461343       0.000161253865983
      -0.000941987909667       0.000264962835463      -0.000798091969627
       0.000478907590944       0.000379097157482      -0.000280441702167
      -0.000679079802836      -0.000489535705152      -0.000280575445768
       0.001864983320052      -0.000212517896276      -0.000909685293864
       0.000083315531245       0.000091255055810      -0.000652103224662
      -0.000166479719949       0.000036921645456      -0.001172620998751
      -0.001790978331061      -0.000231176240708      -0.000147800000280
       0.000638898384817       0.000238816660447      -0.000815172775746
       0.000008396888034       0.000336133871708      -0.000348184435687
       0.000096392517252       0.000105963467242       0.000085894411258
       0.000074479408158       0.000120451469863       0.000175588716644
       0.000411182069840      -0.000110007093571       0.000274908282530
       0.000004607318126       0.000450463753357      -0.000123639009678
       0.000436804979290       0.000062766327706      -0.000387565274562
       0.000306920593611       0.000678656184937       0.000473495964833
       0.000922752542403      -0.000070608046114      -0.000558958187985
      -0.006823117478862      -0.036545617505110       0.045337691746135
       0.014978988254155       0.015498501562435       0.058044165087782
       0.000086581204970       0.000398232155451      -0.000241826725995
       0.000506661418059      -0.000087978029883       0.000122206828950
      -0.000147357270446       0.000690533393483       0.000731909980870
       0.000478967521340       0.000124604623474      -0.000723648769311
      -0.000037391102330       0.000089115306450      -0.000396431470018
       0.000391579865517      -0.000231970283666      -0.000441516220748
      -0.000290773843561      -0.000146660567273      -0.000804465376038
       0.000188924871155       0.001096106496331       0.000064007869205
       0.000228395058959       0.000665756918550      -0.000667581475643
       0.000233435320235       0.000207277606663      -0.000352850183346
       0.000535501924131      -0.000131258523078       0.000581108080351
       0.001234521136937      -0.000005258274188       0.000730481117672
       0.000275189166914      -0.000020215701267       0.000008987579774
      -0.000167854391832       0.000283988183126       0.000158258486175
      -0.000152029659934       0.000238631066759       0.000171102501055
       0.000287716896152       0.000614018941768      -0.000281460407609
       0.000643659747380       0.000719913205588       0.000093522524109
      -0.000045993559313       0.000393106129064      -0.000139546896931
       0.000194064600360       0.000527023511026      -0.000109194321290
      -0.000525207776991      -0.000592895234900       0.001010769436788
       0.000911222364005       0.000092265311234      -0.000170151186944
       0.000237116395671       0.000662363716830      -0.000353906605784
       0.000116762628737       0.000530956709303      -0.000674250500552
       0.000060058704784       0.000586434992042      -0.000836728125753
       0.000602565176275       0.000381007200915      -0.001282397183273
       0.000076378975995       0.000309252256216      -0.000287542433186
       0.000056009369976       0.000239991393491      -0.000776125980466
      -0.001263538042307      -0.001076170025362      -0.000585101576495
       0.000546144160943       0.000269080096586      -0.000666782907679
       0.000492967444368       0.000705030875696      -0.001172899186643
      -0.000079692700434       0.000114858583629      -0.000874689807777
      -0.000230963986541       0.000362536117034      -0.000409195419409
       0.000447342960567      -0.000350764682682      -0.000890357981308
      -0.000112610838987       0.000272398730402      -0.000011721623731
       0.000130325708485       0.000663873253816      -0.000350729555898
      -0.000077534069118       0.000041321556975      -0.000322641576867
       0.000324007142884       0.000499455089763      -0.000389755377090
      -0.000110961097773       0.000240292382673      -0.000249812923952
      -0.001350213726676      -0.002378613789218       0.006264516444534
      -0.023415988581889      -0.000136114340770      -0.074393077465561
DYMAT: ------------------------------
DYMAT: DEGREE OF FREEDOM  73  1  1
DYMAT: ------------------------------
DYMAT: DEGREE OF FREEDOM  73  2  2
DYMAT: ------------------------------
DYMAT: DEGREE OF FREEDOM  73  3  3
DYMAT: ------------------------------
DYMAT: DEGREE OF FREEDOM  74  1  4
DYMAT: ------------------------------
DYMAT: DEGREE OF FREEDOM  74  2  5
DYMAT: ------------------------------
DYMAT: DEGREE OF FREEDOM  74  3  6
DYMAT: ------------------------------
DYMAT: DEGREE OF FREEDOM 114  1  7
DYMAT: ------------------------------
DYMAT: DEGREE OF FREEDOM 114  2  8
DYMAT: ------------------------------
DYMAT: DEGREE OF FREEDOM 114  3  9
DYMAT: LEAVING
 stress matrix after NEB project (eV)
    -23.67517     -0.30345      0.23761
     -0.30345    -24.47962     -0.84685
      0.23761     -0.84685    -27.99707
  FORCES: max atom, RMS     0.077991    0.010880
  FORCE total and by dimension    0.116164    0.074393
  Stress total and by dimension   44.105928   27.997073


--------------------------------------------------------------------------------------------------------


     LOOP+:  cpu time  191.0320: real time  191.9048
    4ORBIT:  cpu time    0.0000: real time    0.0000
 


 total charge     
 
# of ion       s       p       d       tot
------------------------------------------
    1        1.573   3.695   0.000   5.268
    2        1.572   3.705   0.000   5.277
    3        1.576   3.700   0.000   5.276
    4        1.573   3.693   0.000   5.266
    5        1.572   3.703   0.000   5.275
    6        1.574   3.669   0.000   5.243
    7        1.575   3.708   0.000   5.283
    8        1.575   3.669   0.000   5.244
    9        1.577   3.674   0.000   5.250
   10        1.572   3.698   0.000   5.270
   11        1.574   3.701   0.000   5.275
   12        1.576   3.689   0.000   5.265
   13        1.569   3.718   0.000   5.287
   14        1.574   3.658   0.000   5.232
   15        1.571   3.720   0.000   5.290
   16        1.575   3.635   0.000   5.210
   17        1.574   3.686   0.000   5.260
   18        1.575   3.663   0.000   5.238
   19        1.573   3.708   0.000   5.281
   20        1.576   3.700   0.000   5.276
   21        1.578   3.700   0.000   5.277
   22        1.574   3.701   0.000   5.275
   23        1.577   3.702   0.000   5.279
   24        1.575   3.700   0.000   5.276
   25        1.574   3.702   0.000   5.276
   26        1.580   3.659   0.000   5.238
   27        1.573   3.647   0.000   5.220
   28        1.575   3.703   0.000   5.278
   29        1.575   3.712   0.000   5.288
   30        1.576   3.701   0.000   5.277
   31        1.575   3.710   0.000   5.286
   32        1.579   3.666   0.000   5.245
   33        1.576   3.701   0.000   5.277
   34        1.575   3.702   0.000   5.278
   35        1.576   3.705   0.000   5.281
   36        1.576   3.696   0.000   5.273
   37        1.574   3.710   0.000   5.283
   38        1.576   3.640   0.000   5.216
   39        1.570   3.735   0.000   5.305
   40        1.570   3.720   0.000   5.291
   41        1.571   3.727   0.000   5.298
   42        1.574   3.705   0.000   5.279
   43        1.573   3.720   0.000   5.293
   44        1.574   3.635   0.000   5.209
   45        1.577   3.701   0.000   5.277
   46        1.573   3.708   0.000   5.281
   47        1.570   3.722   0.000   5.292
   48        1.572   3.716   0.000   5.288
   49        1.575   3.696   0.000   5.270
   50        1.570   3.720   0.000   5.289
   51        1.575   3.710   0.000   5.285
   52        1.577   3.690   0.000   5.268
   53        1.575   3.699   0.000   5.274
   54        1.576   3.677   0.000   5.252
   55        1.573   3.710   0.000   5.283
   56        1.573   3.703   0.000   5.276
   57        1.579   3.659   0.000   5.238
   58        1.574   3.694   0.000   5.268
   59        1.576   3.688   0.000   5.264
   60        1.574   3.706   0.000   5.280
   61        1.577   3.660   0.000   5.237
   62        1.568   3.725   0.000   5.293
   63        1.573   3.703   0.000   5.276
   64        1.577   3.687   0.000   5.264
   65        1.571   3.708   0.000   5.279
   66        1.578   3.656   0.000   5.233
   67        1.573   3.692   0.000   5.265
   68        1.576   3.700   0.000   5.276
   69        1.569   3.719   0.000   5.289
   70        1.570   3.723   0.000   5.292
   71        1.576   3.682   0.000   5.258
   72        1.576   3.656   0.000   5.231
   73        1.640   3.465   0.000   5.105
   74        1.643   3.457   0.000   5.100
   75        0.639   0.991   0.000   1.629
   76        0.644   0.993   0.000   1.637
   77        0.646   1.003   0.000   1.649
   78        0.637   0.983   0.000   1.620
   79        0.641   0.994   0.000   1.635
   80        0.645   0.991   0.000   1.636
   81        0.639   0.989   0.000   1.627
   82        0.645   0.996   0.000   1.641
   83        0.638   0.985   0.000   1.624
   84        0.640   0.991   0.000   1.631
   85        0.641   0.996   0.000   1.636
   86        0.642   1.001   0.000   1.642
   87        0.645   0.992   0.000   1.637
   88        0.639   0.987   0.000   1.626
   89        0.640   0.990   0.000   1.630
   90        0.639   0.989   0.000   1.629
   91        0.643   0.993   0.000   1.636
   92        0.641   0.993   0.000   1.634
   93        0.646   0.996   0.000   1.642
   94        0.641   0.995   0.000   1.636
   95        0.640   0.990   0.000   1.630
   96        0.644   0.988   0.000   1.632
   97        0.643   0.989   0.000   1.632
   98        0.639   0.981   0.000   1.620
   99        0.642   0.999   0.000   1.640
  100        0.645   0.992   0.000   1.637
  101        0.643   0.990   0.000   1.633
  102        0.646   0.995   0.000   1.641
  103        0.642   0.990   0.000   1.632
  104        0.642   0.995   0.000   1.637
  105        0.642   0.992   0.000   1.634
  106        0.639   0.987   0.000   1.626
  107        0.638   0.987   0.000   1.625
  108        0.343   0.453   0.000   0.795
  109        0.341   0.454   0.000   0.795
  110        0.340   0.453   0.000   0.793
  111        0.113   0.064   9.211   9.387
  112        0.124   0.080   9.211   9.415
  113        0.224   0.148   9.064   9.435
  114        1.337   2.259   0.000   3.596
--------------------------------------------------
tot        140.627 309.550  27.486 477.663
 


 magnetization (x)
 
# of ion       s       p       d       tot
------------------------------------------
    1       -0.000  -0.000   0.000  -0.000
    2        0.000  -0.000   0.000  -0.000
    3       -0.000  -0.000   0.000  -0.000
    4        0.000   0.000   0.000   0.000
    5       -0.000  -0.000   0.000  -0.000
    6        0.000   0.000   0.000   0.000
    7       -0.000   0.000   0.000   0.000
    8       -0.000  -0.000   0.000  -0.000
    9        0.000   0.000   0.000   0.000
   10       -0.000  -0.000   0.000  -0.000
   11       -0.000   0.000   0.000   0.000
   12       -0.000   0.000   0.000   0.000
   13        0.000   0.000   0.000   0.000
   14        0.000  -0.000   0.000  -0.000
   15        0.000   0.000   0.000   0.000
   16        0.000  -0.000   0.000  -0.000
   17        0.000  -0.000   0.000  -0.000
   18        0.000  -0.000   0.000  -0.000
   19        0.000  -0.000   0.000  -0.000
   20       -0.000   0.000   0.000   0.000
   21       -0.000  -0.000   0.000  -0.000
   22        0.000  -0.000   0.000  -0.000
   23       -0.000  -0.000   0.000  -0.000
   24       -0.000   0.000   0.000   0.000
   25       -0.000  -0.000   0.000  -0.000
   26        0.000  -0.000   0.000  -0.000
   27       -0.000   0.000   0.000   0.000
   28       -0.000  -0.000   0.000  -0.000
   29        0.000  -0.000   0.000  -0.000
   30       -0.000   0.000   0.000   0.000
   31       -0.000  -0.000   0.000  -0.000
   32       -0.000   0.000   0.000   0.000
   33       -0.000  -0.000   0.000  -0.000
   34       -0.000  -0.000   0.000  -0.000
   35        0.000   0.000   0.000   0.000
   36        0.000  -0.000   0.000  -0.000
   37       -0.000   0.000   0.000   0.000
   38        0.000   0.000   0.000   0.000
   39        0.000  -0.000   0.000  -0.000
   40        0.000  -0.000   0.000  -0.000
   41       -0.000   0.000   0.000   0.000
   42       -0.000  -0.000   0.000  -0.000
   43        0.000   0.000   0.000   0.000
   44       -0.000   0.000   0.000   0.000
   45       -0.000   0.000   0.000   0.000
   46        0.000   0.000   0.000   0.000
   47        0.000   0.000   0.000   0.000
   48        0.000   0.000   0.000   0.000
   49        0.000   0.000   0.000   0.000
   50       -0.000  -0.000   0.000  -0.000
   51        0.000  -0.000   0.000   0.000
   52       -0.000  -0.000   0.000  -0.000
   53        0.000   0.000   0.000   0.000
   54        0.000   0.000   0.000   0.000
   55        0.000  -0.000   0.000  -0.000
   56        0.000   0.000   0.000   0.000
   57        0.000   0.000   0.000   0.000
   58       -0.000  -0.000   0.000  -0.000
   59       -0.000  -0.000   0.000  -0.000
   60        0.000   0.000   0.000   0.000
   61       -0.000   0.000   0.000   0.000
   62        0.000   0.000   0.000   0.000
   63       -0.000   0.000   0.000   0.000
   64       -0.000   0.000   0.000   0.000
   65        0.000  -0.000   0.000  -0.000
   66        0.000   0.000   0.000   0.000
   67       -0.000  -0.000   0.000  -0.000
   68        0.000   0.000   0.000   0.000
   69        0.000   0.000   0.000   0.000
   70        0.000  -0.000   0.000   0.000
   71       -0.000  -0.000   0.000  -0.000
   72        0.000  -0.000   0.000  -0.000
   73        0.000   0.000   0.000   0.000
   74        0.000   0.000   0.000   0.000
   75        0.000   0.000   0.000   0.000
   76       -0.000  -0.000   0.000  -0.000
   77       -0.000   0.000   0.000  -0.000
   78        0.000   0.000   0.000   0.000
   79        0.000   0.000   0.000   0.000
   80        0.000  -0.000   0.000   0.000
   81        0.000  -0.000   0.000   0.000
   82        0.000   0.000   0.000   0.000
   83        0.000   0.000   0.000   0.000
   84       -0.000   0.000   0.000   0.000
   85       -0.000  -0.000   0.000  -0.000
   86        0.000  -0.000   0.000   0.000
   87       -0.000   0.000   0.000  -0.000
   88       -0.000   0.000   0.000   0.000
   89        0.000   0.000   0.000   0.000
   90       -0.000   0.000   0.000   0.000
   91       -0.000  -0.000   0.000  -0.000
   92       -0.000   0.000   0.000   0.000
   93        0.000   0.000   0.000   0.000
   94       -0.000  -0.000   0.000  -0.000
   95       -0.000   0.000   0.000   0.000
   96       -0.000   0.000   0.000   0.000
   97        0.000   0.000   0.000   0.000
   98        0.000  -0.000   0.000   0.000
   99       -0.000  -0.000   0.000  -0.000
  100       -0.000  -0.000   0.000  -0.000
  101       -0.000  -0.000   0.000  -0.000
  102        0.000  -0.000   0.000  -0.000
  103        0.000   0.000   0.000   0.000
  104       -0.000  -0.000   0.000  -0.000
  105        0.000  -0.000   0.000  -0.000
  106       -0.000  -0.000   0.000  -0.000
  107        0.000   0.000   0.000   0.000
  108       -0.000   0.000   0.000  -0.000
  109        0.000  -0.000   0.000  -0.000
  110       -0.000  -0.000   0.000  -0.000
  111        0.000  -0.000  -0.000  -0.000
  112        0.000   0.000  -0.000  -0.000
  113        0.000  -0.000   0.000   0.000
  114       -0.000  -0.000   0.000  -0.000
--------------------------------------------------
tot          0.000  -0.000  -0.000  -0.000
 

 total amount of memory used by VASP MPI-rank0   211529. kBytes
=======================================================================

   base      :      30000. kBytes
   nonlr-proj:      18812. kBytes
   fftplans  :      63994. kBytes
   grid      :      59474. kBytes
   one-center:        902. kBytes
   wavefun   :      38347. kBytes
 
  
  
 General timing and accounting informations for this job:
 ========================================================
  
                  Total CPU time used (sec):     2181.119
                            User time (sec):     2121.696
                          System time (sec):       59.423
                         Elapsed time (sec):     2188.953
  
                   Maximum memory used (kb):      333848.
                   Average memory used (kb):           0.
  
                          Minor page faults:       758117
                          Major page faults:            3
                 Voluntary context switches:         1781
