 vasp.5.4.4.18Apr17-6-g9f103f2a35 (build Dec 31 2018 11:41:54) complex          
  
 executed on             LinuxIFC date 2022.05.03  19:45:55
 running on   16 total cores
 distrk:  each k-point on   16 cores,    1 groups
 distr:  one band on NCORES_PER_BAND=   4 cores,    4 groups


--------------------------------------------------------------------------------------------------------


 INCAR:
 POTCAR:   PAW_PBE O 08Apr2002                    
 POTCAR:   PAW_PBE Si 05Jan2001                   
 POTCAR:   PAW_PBE Al 04Jan2001                   
 POTCAR:   PAW_PBE Ag 06Sep2000                   
 POTCAR:   PAW_PBE O 08Apr2002                    
   VRHFIN =O: s2p4                                                              
   LEXCH  = PE                                                                  
   EATOM  =   432.3788 eV,   31.7789 Ry                                         
                                                                                
   TITEL  = PAW_PBE O 08Apr2002                                                 
   LULTRA =        F    use ultrasoft PP ?                                      
   IUNSCR =        0    unscreen: 0-lin 1-nonlin 2-no                           
   RPACOR =     .000    partial core radius                                     
   POMASS =   16.000; ZVAL   =    6.000    mass and valenz                      
   RCORE  =    1.520    outmost cutoff radius                                   
   RWIGS  =    1.550; RWIGS  =     .820    wigner-seitz radius (au A)           
   ENMAX  =  400.000; ENMIN  =  300.000 eV                                      
   ICORE  =        2    local potential                                         
   LCOR   =        T    correct aug charges                                     
   LPAW   =        T    paw PP                                                  
   EAUG   =  605.392                                                            
   DEXC   =     .000                                                            
   RMAX   =    2.264    core radius for proj-oper                               
   RAUG   =    1.300    factor for augmentation sphere                          
   RDEP   =    1.550    radius for radial grids                                 
   QCUT   =   -5.520; QGAM   =   11.041    optimization parameters              
                                                                                
   Description                                                                  
     l     E      TYP  RCUT    TYP  RCUT                                        
     0   .000     23  1.200                                                     
     0  -.700     23  1.200                                                     
     1   .000     23  1.520                                                     
     1   .600     23  1.520                                                     
     2   .000      7  1.500                                                     
  local pseudopotential read in
  atomic valenz-charges read in
  non local Contribution for L=           0  read in
    real space projection operators read in
  non local Contribution for L=           0  read in
    real space projection operators read in
  non local Contribution for L=           1  read in
    real space projection operators read in
  non local Contribution for L=           1  read in
    real space projection operators read in
    PAW grid and wavefunctions read in
 
   number of l-projection  operators is LMAX  =           4
   number of lm-projection operators is LMMAX =           8
 
 POTCAR:   PAW_PBE Si 05Jan2001                   
   VRHFIN =Si: s2p2                                                             
   LEXCH  = PE                                                                  
   EATOM  =   103.0669 eV,    7.5752 Ry                                         
                                                                                
   TITEL  = PAW_PBE Si 05Jan2001                                                
   LULTRA =        F    use ultrasoft PP ?                                      
   IUNSCR =        1    unscreen: 0-lin 1-nonlin 2-no                           
   RPACOR =    1.500    partial core radius                                     
   POMASS =   28.085; ZVAL   =    4.000    mass and valenz                      
   RCORE  =    1.900    outmost cutoff radius                                   
   RWIGS  =    2.480; RWIGS  =    1.312    wigner-seitz radius (au A)           
   ENMAX  =  245.345; ENMIN  =  184.009 eV                                      
   ICORE  =        2    local potential                                         
   LCOR   =        T    correct aug charges                                     
   LPAW   =        T    paw PP                                                  
   EAUG   =  322.069                                                            
   DEXC   =    -.007                                                            
   RMAX   =    2.944    core radius for proj-oper                               
   RAUG   =    1.300    factor for augmentation sphere                          
   RDEP   =    1.993    radius for radial grids                                 
   QCUT   =   -4.246; QGAM   =    8.493    optimization parameters              
                                                                                
   Description                                                                  
     l     E      TYP  RCUT    TYP  RCUT                                        
     0   .000     23  1.900                                                     
     0   .000     23  1.900                                                     
     1   .000     23  1.900                                                     
     1   .000     23  1.900                                                     
     2   .000      7  1.900                                                     
  local pseudopotential read in
  partial core-charges read in
  atomic valenz-charges read in
  non local Contribution for L=           0  read in
    real space projection operators read in
  non local Contribution for L=           0  read in
    real space projection operators read in
  non local Contribution for L=           1  read in
    real space projection operators read in
  non local Contribution for L=           1  read in
    real space projection operators read in
    PAW grid and wavefunctions read in
 
   number of l-projection  operators is LMAX  =           4
   number of lm-projection operators is LMMAX =           8
 
 POTCAR:   PAW_PBE Al 04Jan2001                   
   VRHFIN =Al: s2p1                                                             
   LEXCH  = PE                                                                  
   EATOM  =    53.5387 eV,    3.9350 Ry                                         
                                                                                
   TITEL  = PAW_PBE Al 04Jan2001                                                
   LULTRA =        F    use ultrasoft PP ?                                      
   IUNSCR =        1    unscreen: 0-lin 1-nonlin 2-no                           
   RPACOR =    1.500    partial core radius                                     
   POMASS =   26.982; ZVAL   =    3.000    mass and valenz                      
   RCORE  =    1.900    outmost cutoff radius                                   
   RWIGS  =    2.650; RWIGS  =    1.402    wigner-seitz radius (au A)           
   ENMAX  =  240.300; ENMIN  =  180.225 eV                                      
   ICORE  =        2    local potential                                         
   LCOR   =        T    correct aug charges                                     
   LPAW   =        T    paw PP                                                  
   EAUG   =  291.052                                                            
   DEXC   =    -.041                                                            
   RMAX   =    2.974    core radius for proj-oper                               
   RAUG   =    1.300    factor for augmentation sphere                          
   RDEP   =    1.966    radius for radial grids                                 
   QCUT   =   -4.203; QGAM   =    8.405    optimization parameters              
                                                                                
   Description                                                                  
     l     E      TYP  RCUT    TYP  RCUT                                        
     0   .000     23  1.900                                                     
     0   .000     23  1.900                                                     
     1   .000     23  1.900                                                     
     1  1.000     23  1.900                                                     
     2   .000      7  1.900                                                     
  local pseudopotential read in
  partial core-charges read in
  atomic valenz-charges read in
  non local Contribution for L=           0  read in
    real space projection operators read in
  non local Contribution for L=           0  read in
    real space projection operators read in
  non local Contribution for L=           1  read in
    real space projection operators read in
  non local Contribution for L=           1  read in
    real space projection operators read in
    PAW grid and wavefunctions read in
 
   number of l-projection  operators is LMAX  =           4
   number of lm-projection operators is LMMAX =           8
 
 POTCAR:   PAW_PBE Ag 06Sep2000                   
   VRHFIN =Ag : s1 d10                                                          
   LEXCH  = PE                                                                  
   EATOM  =  1037.4134 eV,   76.2477 Ry                                         
                                                                                
   TITEL  = PAW_PBE Ag 06Sep2000                                                
   LULTRA =        F    use ultrasoft PP ?                                      
   IUNSCR =        1    unscreen: 0-lin 1-nonlin 2-no                           
   RPACOR =    2.000    partial core radius                                     
   POMASS =  107.868; ZVAL   =   11.000    mass and valenz                      
   RCORE  =    2.400    outmost cutoff radius                                   
   RWIGS  =    2.840; RWIGS  =    1.503    wigner-seitz radius (au A)           
   ENMAX  =  249.846; ENMIN  =  187.385 eV                                      
   RCLOC  =    1.962    cutoff for local pot                                    
   LCOR   =        T    correct aug charges                                     
   LPAW   =        T    paw PP                                                  
   EAUG   =  412.496                                                            
   DEXC   =    -.047                                                            
   RMAX   =    2.917    core radius for proj-oper                               
   RAUG   =    1.300    factor for augmentation sphere                          
   RDEP   =    2.416    radius for radial grids                                 
   QCUT   =   -4.285; QGAM   =    8.570    optimization parameters              
                                                                                
   Description                                                                  
     l     E      TYP  RCUT    TYP  RCUT                                        
     2   .000     23  2.400                                                     
     2   .000     23  2.400                                                     
     0   .000     23  2.400                                                     
     0   .000     23  2.400                                                     
     1  -.200     23  2.400                                                     
     1  1.500     23  2.400                                                     
     3   .000      7   .000                                                     
  local pseudopotential read in
  partial core-charges read in
  atomic valenz-charges read in
  non local Contribution for L=           2  read in
    real space projection operators read in
  non local Contribution for L=           2  read in
    real space projection operators read in
  non local Contribution for L=           0  read in
    real space projection operators read in
  non local Contribution for L=           0  read in
    real space projection operators read in
  non local Contribution for L=           1  read in
    real space projection operators read in
  non local Contribution for L=           1  read in
    real space projection operators read in
    PAW grid and wavefunctions read in
 
   number of l-projection  operators is LMAX  =           6
   number of lm-projection operators is LMMAX =          18
 
 Optimization of the real space projectors (new method)

 maximal supplied QI-value         = 24.76
 optimisation between [QCUT,QGAM] = [ 10.15, 20.30] = [ 28.85,115.39] Ry 
 Optimized for a Real-space Cutoff    1.51 Angstroem

   l    n(q)    QCUT    max X(q) W(low)/X(q) W(high)/X(q)  e(spline) 
   0      9    10.150     4.192    0.32E-04    0.13E-04    0.13E-06
   0      9    10.150     8.473    0.18E-03    0.20E-03    0.43E-06
   1      9    10.150     2.474    0.32E-04    0.33E-04    0.64E-07
   1      9    10.150     3.912    0.13E-03    0.16E-03    0.33E-06
 Optimization of the real space projectors (new method)

 maximal supplied QI-value         = 19.84
 optimisation between [QCUT,QGAM] = [ 10.12, 20.44] = [ 28.68,116.96] Ry 
 Optimized for a Real-space Cutoff    1.38 Angstroem

   l    n(q)    QCUT    max X(q) W(low)/X(q) W(high)/X(q)  e(spline) 
   0      8    10.119     8.708    0.16E-04    0.67E-05    0.60E-08
   0      8    10.119   106.241    0.56E-04    0.11E-03    0.54E-07
   1      8    10.119     5.901    0.16E-04    0.16E-05    0.22E-07
   1      8    10.119    73.241    0.22E-03    0.17E-03    0.18E-06
 Optimization of the real space projectors (new method)

 maximal supplied QI-value         = 19.84
 optimisation between [QCUT,QGAM] = [ 10.12, 20.44] = [ 28.68,116.96] Ry 
 Optimized for a Real-space Cutoff    1.26 Angstroem

   l    n(q)    QCUT    max X(q) W(low)/X(q) W(high)/X(q)  e(spline) 
   0      8    10.119    13.410    0.28E-04    0.17E-04    0.51E-08
   0      8    10.119   140.052    0.10E-03    0.16E-03    0.42E-07
   1      7    10.119     9.624    0.38E-04    0.42E-05    0.15E-07
   1      7    10.119    53.353    0.23E-03    0.17E-03    0.13E-06
 Optimization of the real space projectors (new method)

 maximal supplied QI-value         = 15.68
 optimisation between [QCUT,QGAM] = [ 10.20, 20.39] = [ 29.11,116.42] Ry 
 Optimized for a Real-space Cutoff    1.51 Angstroem

   l    n(q)    QCUT    max X(q) W(low)/X(q) W(high)/X(q)  e(spline) 
   2      8    10.195     3.831    0.11E-04    0.20E-04    0.48E-07
   2      8    10.195    20.184    0.23E-03    0.42E-03    0.20E-06
   0      9    10.195    16.770    0.13E-04    0.90E-05    0.63E-08
   0      9    10.195    80.708    0.19E-03    0.15E-03    0.44E-07
   1      9    10.195     6.696    0.12E-04    0.45E-04    0.30E-07
   1      9    10.195     8.973    0.12E-03    0.15E-03    0.13E-06
 PAW_PBE O 08Apr2002                    :
 energy of atom  1       EATOM= -432.3788
 kinetic energy error for atom=    0.1156 (will be added to EATOM!!)
 PAW_PBE Si 05Jan2001                   :
 energy of atom  2       EATOM= -103.0669
 kinetic energy error for atom=    0.0012 (will be added to EATOM!!)
 PAW_PBE Al 04Jan2001                   :
 energy of atom  3       EATOM=  -53.5387
 kinetic energy error for atom=    0.0005 (will be added to EATOM!!)
 PAW_PBE Ag 06Sep2000                   :
 energy of atom  4       EATOM=-1037.4134
 kinetic energy error for atom=    0.0091 (will be added to EATOM!!)
 
 
 POSCAR: O  C                                    
  positions in direct lattice
  No initial velocities read in
 exchange correlation table for  LEXCH =        8
   RHO(1)=    0.500       N(1)  =     2000
   RHO(2)=  100.500       N(2)  =     4000

 VTST: version 3.2, (02/03/18)

 CHAIN: initializing optimizer
 
 OPT: Using VASP Dynamics algorithm
 CHAIN: Read ICHAIN            0
 
 POSCAR: O  C                                    
  positions in direct lattice
  No initial velocities read in
 


--------------------------------------------------------------------------------------------------------


 ion  position               nearest neighbor table
   1  0.898  0.096  0.120-  73 1.63  80 1.63
   2  0.102  0.885  0.882-  79 1.62  74 1.63
   3  0.891  0.791  0.125-  83 1.61  75 1.63
   4  0.093  0.195  0.868-  76 1.63  82 1.63
   5  0.194  0.103  0.117-  77 1.63  81 1.63
   6  0.796  0.899  0.881-  78 1.59 106 1.73
   7  0.551  0.423  0.460-  84 1.62  90 1.63
   8  0.762  0.234  0.220-  89 1.59 107 1.73
   9  0.564  0.141  0.472-  94 1.64  85 1.65
  10  0.764  0.536  0.203-  93 1.63  86 1.63
  11  0.862  0.423  0.467-  92 1.63  87 1.64
  12  0.464  0.236  0.184-  88 1.63  91 1.64
  13  0.227  0.773  0.770- 102 1.60  95 1.64
  14  0.423  0.567  0.525-  96 1.66 101 1.67 110 2.53
  15  0.228  0.445  0.773-  97 1.62 105 1.62
  16  0.426  0.848  0.533-  98 1.63 108 1.79 110 2.27
  17  0.529  0.754  0.805-  99 1.63 104 1.64
  18  0.122  0.559  0.533- 103 1.66 100 1.67 110 2.45
  19  0.976  0.314  0.163-  73 1.61  89 1.63
  20  0.019  0.667  0.841- 102 1.61  74 1.63
  21  0.679  0.674  0.179-  93 1.61  75 1.63
  22  0.310  0.313  0.818- 105 1.62  76 1.63
  23  0.317  0.015  0.178-  77 1.61  91 1.63
  24  0.659  0.978  0.830- 104 1.62  78 1.63
  25  0.320  0.982  0.839-  79 1.62  95 1.63
  26  0.677  0.004  0.164-  80 1.60 107 1.74 109 2.55
  27  0.666  0.668  0.815-  99 1.62 106 1.78 111 2.22
  28  0.330  0.322  0.159-  81 1.62  88 1.62
  29  0.014  0.334  0.832-  97 1.61  82 1.62
  30  0.986  0.671  0.178-  86 1.62  83 1.62
  31  0.645  0.639  0.504- 101 1.61  84 1.62
  32  0.341  0.990  0.474-  85 1.59 108 1.71
  33  0.994  0.336  0.498- 103 1.61  87 1.63
  34  0.333  0.347  0.481-  96 1.61  90 1.63
  35  0.985  0.641  0.504- 100 1.62  92 1.62
  36  0.646  0.005  0.515-  98 1.61  94 1.64
  37  0.117  0.243  0.128-  81 1.61  73 1.62
  38  0.883  0.746  0.862-  74 1.60 106 1.75 111 2.58
  39  0.761  0.878  0.115-  80 1.60  75 1.61
  40  0.225  0.105  0.871-  76 1.61  79 1.62
  41  0.110  0.882  0.130-  77 1.61  83 1.61
  42  0.873  0.119  0.861-  82 1.62  78 1.63
  43  0.770  0.550  0.475-  84 1.62  92 1.62
  44  0.535  0.086  0.175-  91 1.62 107 1.79 109 2.31
  45  0.411  0.206  0.468-  90 1.60  85 1.64
  46  0.903  0.453  0.196-  86 1.61  89 1.63
  47  0.782  0.205  0.454-  87 1.60  94 1.63
  48  0.544  0.456  0.196-  88 1.61  93 1.62
  49  0.443  0.889  0.807- 104 1.62  95 1.64
  50  0.208  0.427  0.542-  96 1.62 103 1.62
  51  0.120  0.554  0.802-  97 1.62 102 1.62
  52  0.577  0.786  0.522- 101 1.61  98 1.64
  53  0.446  0.532  0.801- 105 1.62  99 1.62
  54  0.199  0.775  0.550- 100 1.57 108 1.74
  55  0.994  0.257  0.996-  82 1.62  73 1.63
  56  0.994  0.725  0.005-  83 1.63  74 1.63
  57  0.723  0.710  0.003-  75 1.60 106 1.73
  58  0.256  0.264  0.992-  76 1.63  81 1.63
  59  0.266  0.999  0.005-  79 1.63  77 1.64
  60  0.663  0.583  0.337-  84 1.61  93 1.63
  61  0.629  0.049  0.342-  94 1.60 107 1.72
  62  0.440  0.108  0.325-  91 1.61  85 1.63
  63  0.910  0.579  0.337-  92 1.61  86 1.63
  64  0.936  0.346  0.332-  87 1.62  89 1.65
  65  0.405  0.322  0.323-  90 1.62  88 1.63
  66  0.359  0.952  0.667-  95 1.59 108 1.74
  67  0.351  0.406  0.655-  96 1.62 105 1.64
  68  0.056  0.406  0.666- 103 1.61  97 1.63
  69  0.574  0.896  0.668- 104 1.62  98 1.62
  70  0.566  0.657  0.662- 101 1.61  99 1.63
  71  0.046  0.631  0.670- 100 1.65 102 1.66
  72  0.730  0.009  0.996-  78 1.66  80 1.67 109 2.48
  73  0.994  0.227  0.102-  19 1.61  37 1.62   1 1.63  55 1.63  89 3.10  81 3.11  80 3.12  82 3.13

  74  0.998  0.757  0.899-  38 1.60  56 1.63   2 1.63  20 1.63 102 3.07  83 3.10 106 3.17
  75  0.762  0.761  0.102-  57 1.60  39 1.61  21 1.63   3 1.63  93 3.01 106 3.06  83 3.13
  76  0.220  0.219  0.888-  40 1.61  58 1.63  22 1.63   4 1.63 105 3.06  81 3.11  82 3.14
  77  0.221  0.000  0.107-  41 1.61  23 1.61   5 1.63  59 1.64  91 3.04  79 3.08
  78  0.767  0.998  0.891-   6 1.59  42 1.63  24 1.63  72 1.66 104 3.07  82 3.10  80 3.11 106 3.24

  79  0.227  0.992  0.899-  25 1.62  40 1.62   2 1.62  59 1.63  77 3.08  95 3.08
  80  0.768  0.997  0.101-  26 1.60  39 1.60   1 1.63  72 1.67  78 3.11  73 3.12 109 3.17 107 3.17

  81  0.224  0.232  0.098-  37 1.61  28 1.62   5 1.63  58 1.63  88 3.06  76 3.11  73 3.11
  82  0.993  0.225  0.890-  42 1.62  55 1.62  29 1.62   4 1.63  97 3.06  78 3.10  73 3.13  76 3.14

  83  0.994  0.767  0.108-   3 1.61  41 1.61  30 1.62  56 1.63  86 3.03  74 3.10  75 3.13
  84  0.657  0.548  0.441-  60 1.61   7 1.62  43 1.62  31 1.62 101 3.07  92 3.09  90 3.13
  85  0.438  0.107  0.435-  32 1.59  62 1.63  45 1.64   9 1.65  94 3.02  90 3.04 108 3.07
  86  0.890  0.559  0.228-  46 1.61  30 1.62  10 1.63  63 1.63  83 3.03  89 3.09  93 3.12
  87  0.891  0.325  0.435-  47 1.60  64 1.62  33 1.63  11 1.64 103 3.02  89 3.07  92 3.11
  88  0.436  0.333  0.216-  48 1.61  28 1.62  12 1.63  65 1.63  81 3.06  91 3.06  93 3.12
  89  0.890  0.333  0.227-   8 1.59  19 1.63  46 1.63  64 1.65  87 3.07  86 3.09  73 3.10 107 3.23

  90  0.425  0.323  0.431-  45 1.60  65 1.62   7 1.63  34 1.63  85 3.04  96 3.04  84 3.13
  91  0.439  0.111  0.216-  62 1.61  44 1.62  23 1.63  12 1.64  77 3.04  88 3.06 107 3.06
  92  0.883  0.548  0.442-  63 1.61  43 1.62  35 1.62  11 1.63 100 3.05  84 3.09  87 3.11
  93  0.663  0.562  0.228-  21 1.61  48 1.62  60 1.63  10 1.63  75 3.01  88 3.12  86 3.12
  94  0.654  0.099  0.443-  61 1.60  47 1.63  36 1.64   9 1.64  85 3.02  98 3.05 107 3.12
  95  0.337  0.901  0.767-  66 1.59  25 1.63  49 1.64  13 1.64  79 3.08 104 3.09 108 3.09
  96  0.329  0.435  0.552-  34 1.61  50 1.62  67 1.62  14 1.66  90 3.04 105 3.10 101 3.10
  97  0.104  0.434  0.769-  29 1.61  51 1.62  15 1.62  68 1.63  82 3.06 102 3.08 103 3.08
  98  0.555  0.886  0.560-  36 1.61  69 1.62  16 1.63  52 1.64 101 3.04  94 3.05 108 3.17 110 3.33

  99  0.552  0.654  0.772-  27 1.62  53 1.62  17 1.63  70 1.63 105 3.07 104 3.09 106 3.14 111 3.36

 100  0.090  0.657  0.564-  54 1.57  35 1.62  71 1.65  18 1.67  92 3.05 102 3.07 103 3.13 110 3.28

 101  0.554  0.663  0.554-  70 1.61  31 1.61  52 1.61  14 1.67  98 3.04  84 3.07  96 3.10
 102  0.106  0.660  0.772-  13 1.60  20 1.61  51 1.62  71 1.66  74 3.07 100 3.07  97 3.08
 103  0.093  0.429  0.560-  33 1.61  68 1.61  50 1.62  18 1.66  87 3.02  97 3.08 100 3.13
 104  0.551  0.879  0.776-  69 1.62  49 1.62  24 1.62  17 1.64  78 3.07  95 3.09  99 3.09
 105  0.333  0.424  0.762-  22 1.62  15 1.62  53 1.62  67 1.64  76 3.06  99 3.07  96 3.10
 106  0.768  0.762  0.895-  57 1.73   6 1.73  38 1.75  27 1.78  75 3.06 111 3.12  99 3.14  74 3.17
                            78 3.24
 107  0.654  0.095  0.231-  61 1.72   8 1.73  26 1.74  44 1.79  91 3.06 109 3.10  94 3.12  80 3.17
                            89 3.23
 108  0.330  0.898  0.558-  32 1.71  66 1.74  54 1.74  16 1.79  85 3.07  95 3.09  98 3.17 110 3.26

 109  0.563  0.026  0.036-  44 2.31  72 2.48  26 2.55 107 3.10  80 3.17
 110  0.318  0.669  0.481-  16 2.27  18 2.45  14 2.53 108 3.26 100 3.28  98 3.33
 111  0.753  0.582  0.756-  27 2.22  38 2.58 106 3.12  99 3.36
 
  LATTYP: Found a hexagonal cell.
 ALAT       =    13.6750001907
 C/A-ratio  =     1.0798537472
  
  Lattice vectors:
  
 A1 = (  13.6750001907,   0.0000000000,   0.0000000000)
 A2 = (  -6.8375000954,  11.8428975619,   0.0000000000)
 A3 = (   0.0000000000,   0.0000000000,  14.7670001984)


Analysis of symmetry for initial positions (statically):
=====================================================================
 Subroutine PRICEL returns:
 Original cell was already a primitive cell.
 

 Routine SETGRP: Setting up the symmetry group for a 
 hexagonal supercell.


 Subroutine GETGRP returns: Found  1 space group operations
 (whereof  1 operations were pure point group operations)
 out of a pool of 24 trial point group operations.


The static configuration has the point symmetry C_1 .


Analysis of symmetry for dynamics (positions and initial velocities):
=====================================================================
 Subroutine PRICEL returns:
 Original cell was already a primitive cell.
 

 Routine SETGRP: Setting up the symmetry group for a 
 hexagonal supercell.


 Subroutine GETGRP returns: Found  1 space group operations
 (whereof  1 operations were pure point group operations)
 out of a pool of 24 trial point group operations.


The dynamic configuration has the point symmetry C_1 .


Analysis of structural, dynamic, and magnetic symmetry:
=====================================================================
 Subroutine PRICEL returns:
 Original cell was already a primitive cell.
 

 Routine SETGRP: Setting up the symmetry group for a 
 hexagonal supercell.


 Subroutine GETGRP returns: Found  1 space group operations
 (whereof  1 operations were pure point group operations)
 out of a pool of 24 trial point group operations.


The magnetic configuration has the point symmetry C_1 .


 Subroutine INISYM returns: Found  1 space group operations
 (whereof  1 operations are pure point group operations),
 and found     1 'primitive' translations

 
 
 KPOINTS: Gamma points only                       
  k-points in reciprocal lattice
Space group operators:
 irot       det(A)        alpha          n_x          n_y          n_z        tau_x        tau_y        tau_z
    1     1.000000     0.000000     1.000000     0.000000     0.000000     0.000000     0.000000     0.000000

 ----------------------------------------------------------------------------- 
|                                                                             |
|           W    W    AA    RRRRR   N    N  II  N    N   GGGG   !!!           |
|           W    W   A  A   R    R  NN   N  II  NN   N  G    G  !!!           |
|           W    W  A    A  R    R  N N  N  II  N N  N  G       !!!           |
|           W WW W  AAAAAA  RRRRR   N  N N  II  N  N N  G  GGG   !            |
|           WW  WW  A    A  R   R   N   NN  II  N   NN  G    G                |
|           W    W  A    A  R    R  N    N  II  N    N   GGGG   !!!           |
|                                                                             |
|      Your generating k-point grid is not commensurate to the symmetry       |
|      of the lattice.  This can cause   slow convergence with respect        |
|      to k-points for HF type calculations                                   |
|      suggested SOLUTIONS:                                                   |
|       ) if not already the case, use automatic k-point generation           |
|       ) shift your grid to Gamma (G) (e.g. required for hex or fcc lattice) |
|                                                                             |
 ----------------------------------------------------------------------------- 

 
 Subroutine IBZKPT_HF returns following result:
 ==============================================
 
 Found      1 k-points in 1st BZ
 the following      1 k-points will be used (e.g. in the exchange kernel)
 Following reciprocal coordinates:   # in IRBZ
  0.000000  0.000000  0.000000    1.00000000   1 t-inv F


--------------------------------------------------------------------------------------------------------




 Dimension of arrays:
   k-points           NKPTS =      1   k-points in BZ     NKDIM =      1   number of bands    NBANDS=    420
   number of dos      NEDOS =    301   number of ions     NIONS =    111
   non local maximal  LDIM  =      6   non local SUM 2l+1 LMDIM =     18
   total plane-waves  NPLWV = 777600
   max r-space proj   IRMAX =   4725   max aug-charges    IRDMAX= 128081
   dimension x,y,z NGX =    90 NGY =   90 NGZ =   96
   dimension x,y,z NGXF=   180 NGYF=  180 NGZF=  192
   support grid    NGXF=   360 NGYF=  360 NGZF=  384
   ions per type =              72  33   3   3
   NGX,Y,Z   is equivalent  to a cutoff of  10.94, 10.94, 10.81 a.u.
   NGXF,Y,Z  is equivalent  to a cutoff of  21.88, 21.88, 21.62 a.u.

 SYSTEM =  SiO2                                    
 POSCAR =  O  C                                    

 Startparameter for this run:
   NWRITE =      2    write-flag & timer
   PREC   = acc       normal or accurate (medium, high low for compatibility)
   ISTART =      0    job   : 0-new  1-cont  2-samecut
   ICHARG =      2    charge: 1-file 2-atom 10-const
   ISPIN  =      2    spin polarized calculation?
   LNONCOLLINEAR =      F non collinear calculations
   LSORBIT =      F    spin-orbit coupling
   INIWAV =      1    electr: 0-lowe 1-rand  2-diag
   LASPH  =      F    aspherical Exc in radial PAW
   METAGGA=      F    non-selfconsistent MetaGGA calc.

 Electronic Relaxation 1
   ENCUT  =  400.0 eV  29.40 Ry    5.42 a.u.  22.30 22.30 24.08*2*pi/ulx,y,z
   ENINI  =  400.0     initial cutoff
   ENAUG  =  605.4 eV  augmentation charge cutoff
   NELM   =    100;   NELMIN=  2; NELMDL= -5     # of ELM steps 
   EDIFF  = 0.1E-04   stopping-criterion for ELM
   LREAL  =      T    real-space projection
   NLSPLINE    = F    spline interpolate recip. space projectors
   LCOMPAT=      F    compatible to vasp.4.4
   GGA_COMPAT  = T    GGA compatible to vasp.4.4-vasp.4.6
   LMAXPAW     = -100 max onsite density
   LMAXMIX     =    2 max onsite mixed and CHGCAR
   VOSKOWN=      0    Vosko Wilk Nusair interpolation
   ROPT   =   -0.00025  -0.00025  -0.00025  -0.00025
 Ionic relaxation
   EDIFFG = 0.1E-03   stopping-criterion for IOM
   NSW    =      0    number of steps for IOM
   NBLOCK =      1;   KBLOCK =      1    inner block; outer block 
   IBRION =     -1    ionic relax: 0-MD 1-quasi-New 2-CG
   NFREE  =      0    steps in history (QN), initial steepest desc. (CG)
   ISIF   =      0    stress and relaxation
   IWAVPR =     10    prediction:  0-non 1-charg 2-wave 3-comb
   ISYM   =      3    0-nonsym 1-usesym 2-fastsym
   LCORR  =      T    Harris-Foulkes like correction to forces

   POTIM  = 0.5000    time-step for ionic-motion
   TEIN   =    0.0    initial temperature
   TEBEG  =    0.0;   TEEND  =   0.0 temperature during run
   SMASS  =  -3.00    Nose mass-parameter (am)
   estimated Nose-frequenzy (Omega)   =  0.10E-29 period in steps =****** mass=  -0.427E-26a.u.
   SCALEE = 1.0000    scale energy and forces
   NPACO  =    256;   APACO  = 16.0  distance and # of slots for P.C.
   PSTRESS=    0.0 pullay stress

  Mass of Ions in am
   POMASS =  16.00 28.09 26.98107.87
  Ionic Valenz
   ZVAL   =   6.00  4.00  3.00 11.00
  Atomic Wigner-Seitz radii
   RWIGS  =  -1.00 -1.00 -1.00 -1.00
  virtual crystal weights 
   VCA    =   1.00  1.00  1.00  1.00
   NELECT =     606.0000    total number of electrons
   NUPDOWN=      -1.0000    fix difference up-down

 DOS related values:
   EMIN   =  10.00;   EMAX   =-10.00  energy-range for DOS
   EFERMI =   0.00
   ISMEAR =     0;   SIGMA  =   0.05  broadening in eV -4-tet -1-fermi 0-gaus

 Electronic relaxation 2 (details)
   IALGO  =     38    algorithm
   LDIAG  =      T    sub-space diagonalisation (order eigenvalues)
   LSUBROT=      F    optimize rotation matrix (better conditioning)
   TURBO    =      0    0=normal 1=particle mesh
   IRESTART =      0    0=no restart 2=restart with 2 vectors
   NREBOOT  =      0    no. of reboots
   NMIN     =      0    reboot dimension
   EREF     =   0.00    reference energy to select bands
   IMIX   =      1    mixing-type and parameters
     AMIX     =   0.40;   BMIX     =  1.00
     AMIX_MAG =   1.60;   BMIX_MAG =  1.00
     AMIN     =   0.10
     WC   =   100.;   INIMIX=   1;  MIXPRE=   1;  MAXMIX= -45

 Intra band minimization:
   WEIMIN = 0.0000     energy-eigenvalue tresh-hold
   EBREAK =  0.60E-08  absolut break condition
   DEPER  =   0.30     relativ break condition  

   TIME   =   0.40     timestep for ELM

  volume/ion in A,a.u.               =      21.55       145.40
  Fermi-wavevector in a.u.,A,eV,Ry     =   1.035952  1.957666 14.601739  1.073198
  Thomas-Fermi vector in A             =   2.170320
 
 Write flags
   LWAVE        =      F    write WAVECAR
   LDOWNSAMPLE  =      F    k-point downsampling of WAVECAR
   LCHARG       =      F    write CHGCAR
   LVTOT        =      F    write LOCPOT, total local potential
   LVHAR        =      F    write LOCPOT, Hartree potential only
   LELF         =      F    write electronic localiz. function (ELF)
   LORBIT       =     11    0 simple, 1 ext, 2 COOP (PROOUT), +10 PAW based schemes


 Dipole corrections
   LMONO  =      F    monopole corrections only (constant potential shift)
   LDIPOL =      F    correct potential (dipole corrections)
   IDIPOL =      0    1-x, 2-y, 3-z, 4-all directions 
   EPSILON=  1.0000000 bulk dielectric constant

 Exchange correlation treatment:
   GGA     =    PE    GGA type
   LEXCH   =     8    internal setting for exchange type
   VOSKOWN=      0    Vosko Wilk Nusair interpolation
   EXXOEP  =     0    0=HF, 1=EXX-LHF (local Hartree Fock) 2=EXX OEP
   LHFCALC =     T    Hartree Fock is set to
   LSYMGRAD=     F    symmetrize gradient (conserves proper symmetry)
   PRECFOCK=normal    Normal, Fast or Accurate (Low or Medium for compatibility)
   LRHFCALC=     F    long range Hartree Fock
   LRSCOR  =     F    long range correlation only (use DFT for short range part)
   LTHOMAS =     F    Thomas Fermi screening in HF
   LMODELHF=     F    short range full HF, long range fraction AEXX
   ENCUT4O =  -1.0   cutoff for four orbital integrals eV
   LMAXFOCK=     4    L truncation for augmentation on plane wave grid
   LMAXFOCKAE=  -1    L truncation for all-electron charge restoration on plane wave grid
   NMAXFOCKAE=   1    number of basis functions for all-electron charge restoration
   LFOCKAEDFT=     F  apply the AE augmentation even for DFT
   NKREDX  =     1    reduce k-point grid by
   NKREDY  =     1    reduce k-point grid by
   NKREDZ  =     1    reduce k-point grid by
   SHIFTRED=     F    shift reduced grid of Gamma
   HFKIDENT=     F    idential grid for each k-point
   ODDONLY =     F    use only odd q-grid points
   EVENONLY=     F    use only even q-grid points
   HFALPHA =   -1.0000 decay constant for conv. correction
   MCALPHA =    0.0000 extent of test-charge in conv. correction in multipole expansion
   AEXX    =    0.2500 exact exchange contribution
   HFSCREEN=    0.2000 screening length (either q_TF or 0.3 A-1)
   HFSCREENC=   0.2000 screening length for correlation (either q_TF or 0.3 A-1)
   HFRCUT  =    0.0000 spherical cutoff for potential kernel
   ALDAX   =    0.7500 LDA exchange part
   AGGAX   =    0.7500 GGA exchange part
   ALDAC   =    1.0000 LDA correlation
   AGGAC   =    1.0000 GGA correlation
   ENCUTFOCK=  -1.0 apply spherical cutoff to Coloumb kernel
   NBANDSGWLOW=     1    first orbital included in HF term
   NBLOCK_FOCK=    64    blocking factor in FOCK_ACC
 Linear response parameters
   LEPSILON=     F    determine dielectric tensor
   LRPA    =     F    only Hartree local field effects (RPA)
   LNABLA  =     F    use nabla operator in PAW spheres
   LVEL    =     F    velocity operator in full k-point grid
   LINTERFAST=   F  fast interpolation
   KINTER  =     0    interpolate to denser k-point grid
   CSHIFT  =0.1000    complex shift for real part using Kramers Kronig
   OMEGAMAX=  -1.0    maximum frequency
   DEG_THRESHOLD= 0.2000000E-02 threshold for treating states as degnerate
   RTIME   =   -0.100 relaxation time in fs
  (WPLASMAI=    0.000 imaginary part of plasma frequency in eV, 0.658/RTIME)
   DFIELD  = 0.0000000 0.0000000 0.0000000 field for delta impulse in time
 
 Orbital magnetization related:
   ORBITALMAG=     F  switch on orbital magnetization
   LCHIMAG   =     F  perturbation theory with respect to B field
   DQ        =  0.001000  dq finite difference perturbation B field
   LLRAUG    =     F  two centre corrections for induced B field



--------------------------------------------------------------------------------------------------------


 Static calculation
 charge density and potential will be updated during run
 spin polarized calculation
 Variant of blocked Davidson
 Davidson routine will perform the subspace rotation
 perform sub-space diagonalisation
    after iterative eigenvector-optimisation
 Kerker-like  mixing scheme
 using additional bands          117
 real space projection scheme for non local part
 use partial core corrections
 calculate Harris-corrections to forces 
   (improved forces if not selfconsistent)
 use gradient corrections 
 use of overlap-Matrix (Vanderbilt PP)
 Gauss-broadening in eV      SIGMA  =   0.05


--------------------------------------------------------------------------------------------------------


  energy-cutoff  :      400.00
  volume of cell :     2391.54
      direct lattice vectors                 reciprocal lattice vectors
    13.675000191  0.000000000  0.000000000     0.073126142  0.042219398  0.000000000
    -6.837500095 11.842897562  0.000000000     0.000000000  0.084438795  0.000000000
     0.000000000  0.000000000 14.767000198     0.000000000  0.000000000  0.067718561

  length of vectors
    13.675000191 13.675000191 14.767000198     0.084438795  0.084438795  0.067718561


 
 k-points in units of 2pi/SCALE and weight: Gamma points only                       
   0.00000000  0.00000000  0.00000000       1.000
 
 k-points in reciprocal lattice and weights: Gamma points only                       
   0.00000000  0.00000000  0.00000000       1.000
 
 position of ions in fractional coordinates (direct lattice) 
   0.89771497  0.09648200  0.11956400
   0.10226300  0.88515502  0.88177699
   0.89135999  0.79120499  0.12465100
   0.09276900  0.19509301  0.86830199
   0.19400600  0.10297000  0.11685900
   0.79597902  0.89895302  0.88123500
   0.55105197  0.42340001  0.45973900
   0.76174098  0.23393101  0.21986300
   0.56422901  0.14063799  0.47159800
   0.76393300  0.53554201  0.20297900
   0.86243898  0.42329001  0.46681100
   0.46387801  0.23599800  0.18373300
   0.22689199  0.77315903  0.76991200
   0.42325601  0.56711900  0.52512503
   0.22780000  0.44545600  0.77261400
   0.42557800  0.84777999  0.53273499
   0.52890700  0.75421202  0.80541497
   0.12237800  0.55850601  0.53297800
   0.97571403  0.31413400  0.16307500
   0.01914200  0.66728401  0.84134501
   0.67885399  0.67396200  0.17873500
   0.30998999  0.31296000  0.81848699
   0.31702501  0.01482300  0.17830101
   0.65910602  0.97785401  0.82962501
   0.32049999  0.98175901  0.83894002
   0.67675197  0.00435400  0.16352500
   0.66630900  0.66793400  0.81538999
   0.33036301  0.32242400  0.15854999
   0.01374700  0.33387601  0.83202201
   0.98600101  0.67113698  0.17757700
   0.64503402  0.63931799  0.50422299
   0.34085399  0.99002898  0.47410899
   0.99358201  0.33559501  0.49841401
   0.33323300  0.34738600  0.48145100
   0.98463601  0.64139700  0.50434798
   0.64602101  0.00514000  0.51546597
   0.11665200  0.24339300  0.12823300
   0.88251299  0.74591601  0.86220098
   0.76069701  0.87772798  0.11501200
   0.22467400  0.10491700  0.87074703
   0.11006900  0.88228601  0.13028900
   0.87301499  0.11912700  0.86052501
   0.77020598  0.54966003  0.47503599
   0.53459603  0.08641300  0.17485399
   0.41116300  0.20632300  0.46777400
   0.90300298  0.45337701  0.19614699
   0.78161502  0.20464000  0.45441401
   0.54439002  0.45606199  0.19591600
   0.44276100  0.88935798  0.80690903
   0.20812000  0.42712399  0.54156399
   0.12008300  0.55364102  0.80188501
   0.57692897  0.78567600  0.52166402
   0.44577101  0.53232503  0.80087602
   0.19906700  0.77541602  0.54985797
   0.99378097  0.25735301  0.99563998
   0.99441201  0.72510302  0.00524900
   0.72292298  0.70995802  0.00263900
   0.25582299  0.26406801  0.99170202
   0.26570001  0.99919802  0.00463100
   0.66347897  0.58303100  0.33652201
   0.62948299  0.04867300  0.34212801
   0.43951500  0.10754200  0.32501501
   0.91046798  0.57937098  0.33690900
   0.93577302  0.34584400  0.33181700
   0.40479401  0.32214400  0.32320401
   0.35852101  0.95158398  0.66711402
   0.35063499  0.40645999  0.65471202
   0.05567100  0.40583700  0.66555601
   0.57398200  0.89586401  0.66848898
   0.56594598  0.65707898  0.66212201
   0.04561000  0.63132602  0.67049003
   0.73032600  0.00944100  0.99563497
   0.99447203  0.22715799  0.10211000
   0.99810302  0.75736701  0.89867300
   0.76239198  0.76148099  0.10185100
   0.21995300  0.21881400  0.88836598
   0.22111499  0.00044400  0.10714800
   0.76705599  0.99766302  0.89053899
   0.22722900  0.99192798  0.89905000
   0.76803899  0.99707300  0.10080900
   0.22428200  0.23241700  0.09834300
   0.99338901  0.22461499  0.89021802
   0.99408197  0.76709098  0.10831800
   0.65689099  0.54846001  0.44149900
   0.43756100  0.10738300  0.43518498
   0.88995200  0.55886698  0.22796300
   0.89072299  0.32494801  0.43522701
   0.43637600  0.33348000  0.21602200
   0.88960099  0.33280301  0.22714201
   0.42531899  0.32320899  0.43125400
   0.43930101  0.11113600  0.21619201
   0.88261998  0.54812801  0.44236800
   0.66337401  0.56201100  0.22793099
   0.65360200  0.09878900  0.44260299
   0.33720699  0.90092498  0.76707500
   0.32932100  0.43465599  0.55233997
   0.10436100  0.43396699  0.76878297
   0.55531400  0.88630199  0.55961698
   0.55162799  0.65396398  0.77169299
   0.09036000  0.65678603  0.56442100
   0.55445701  0.66346401  0.55414098
   0.10605600  0.65985000  0.77201700
   0.09265000  0.42914999  0.56041199
   0.55106997  0.87932098  0.77621597
   0.33312100  0.42370001  0.76207000
   0.76825702  0.76160502  0.89472699
   0.65435100  0.09522500  0.23147100
   0.32984900  0.89800101  0.55763698
   0.56322199  0.02606000  0.03618900
   0.31815499  0.66879302  0.48081601
   0.75258398  0.58202499  0.75574797
 
 position of ions in cartesian coordinates  (Angst):
  11.61655672  1.14262645  1.76560157
  -4.65380095 10.48280025 13.02120097
   6.77948378  9.37015964  1.84072134
  -0.06533240  2.31046649 12.82221563
   1.94897467  1.21946313  1.72565682
   4.73842192 10.64620854 13.01319746
   4.64063821  5.01428301  6.78896590
   8.81730482  2.77042093  3.24671694
   6.75421955  1.66556136  6.96408774
   6.78501541  6.34236918  2.99739090
   8.89960766  5.01298027  6.89339814
   4.72989544  2.79490020  2.71318526
  -2.18372686  9.15644316 11.36929072
   1.91034979  6.71633225  7.75452138
   0.06935957  5.27548975 11.40919112
   0.02308345 10.04017156  7.86689770
   2.07587857  8.93205572 11.89356310
  -2.14526575  6.61432949  7.87048620
  11.19499825  3.72025681  2.40812856
  -4.30078764  7.90257620 12.42414196
   4.67511321  7.98166289  2.63937982
   2.09924914  3.70635321 12.08659753
   4.23396475  0.17554727  2.63297101
   2.32719799 11.58062491 12.25107269
  -2.32993997 11.62687141 12.38862750
   9.22481286  0.05156398  2.41477371
   4.54477690  7.91027394 12.04086416
   2.31314006  3.81843434  2.34130779
  -2.09488705  3.95405943 12.28646920
   8.89466494  7.94820644  2.62227965
   4.44950347  7.57137745  7.44586098
  -2.10814486 11.72481176  7.00116761
  11.29260325  3.97441735  7.36007978
   2.18170950  4.11405685  7.10958709
   9.07934557  7.59599896  7.44770672
   8.79919266  0.06087249  7.61188616
  -0.06898361  2.88247841  1.89361675
   6.96816448  8.83380688 12.73212197
   4.40106653 10.39484261  1.69838220
   2.35504703  1.24252125 12.85832156
  -4.52743711 10.44882286  1.92397773
  11.12394925  1.41080883 12.70737302
   6.77426637  6.50956739  7.01485663
   6.71975183  1.02338035  2.58206898
   4.21192061  2.44346213  6.90761881
   9.24860055  5.36929746  2.89650271
   9.28935951  2.42353057  6.71033178
   4.32620978  5.40109542  2.89309157
  -0.02622849 10.53257550 11.91562573
  -0.07441927  5.05838571  7.99727552
  -2.14338553  6.55671390 11.84143609
   2.51744407  9.30468042  7.70341273
   2.45614620  6.30427079 11.82653636
  -2.57966587  9.18317246  8.11975281
  11.83030375  3.04780531 14.70261578
   8.64069238  8.58732080  0.07751198
   5.03163389  8.40796007  0.03897011
   1.69281436  3.12733036 14.64446393
  -3.19856884 11.83339979  0.06838598
   5.08660054  6.90477640  4.96942063
   8.27537830  0.57642935  5.05220438
   5.27504920  1.27360890  4.79949669
   8.48920073  6.86143111  4.97513521
  10.43198777  4.09579508  4.89994172
   3.33289849  3.81511842  4.77275369
  -1.60368063 11.26951162  9.85127285
   2.01576338  4.81366399  9.66813254
  -2.01360960  4.80628601  9.82826579
   1.72373371 10.60962570  9.87157689
   3.24653383  7.78171906  9.77755587
  -3.69297498  7.47672938  9.90112635
   9.92265531  0.11180880 14.70254184
  12.04621235  2.69020887  1.50785836
   8.47056199  8.96941998 13.27070434
   5.21908421  9.01814132  1.50403375
   1.51171658  2.59139179 13.11850066
   3.02071172  0.00525825  1.58225452
   3.66796978 11.81522096 13.15058944
  -3.67495106 11.74730147 13.27627148
   3.68544661 11.80823334  1.48864652
   1.47790506  2.75249075  1.45223110
  12.04878987  2.66009235 13.14584966
   8.34908656  9.08457985  1.59953194
   5.23288904  6.49535568  6.51961575
   5.24941557  1.27172585  6.42637676
   8.34884081  6.61860437  3.36632968
   9.95880499  3.84832603  6.42699730
   3.68727242  3.94936948  3.18999692
   9.88975312  3.94135197  3.35420605
   3.60629573  3.82773094  6.36832789
   5.24754906  1.31617223  3.19250741
   8.32200304  6.49142386  6.53244836
   5.22888939  6.65583874  3.36585702
   8.26253774  1.16994800  6.53591847
  -1.54876899 10.66956226 11.32739671
   1.53150430  5.14758641  8.15640446
  -1.54011270  5.13942666 11.35261831
   1.53382914 10.49638372  8.26386410
   3.07203413  7.74482846 11.39559055
  -3.25510148  7.77824961  8.33480499
   3.04576447  7.85733631  8.18300004
  -3.06140867  7.81453597 11.40037522
  -1.66732435  5.08237931  8.27560397
   1.52352474 10.41370828 11.46238140
   1.65838094  5.01783576 11.25348784
   5.29844050  9.01961028 13.21243367
   8.29714906  1.12773991  3.41813233
  -1.62939682 10.63493403  8.23462534
   7.52387558  0.30862591  0.53440298
  -0.22210280  7.92044726  7.10021007
   6.31199015  6.89286236 11.16013048
 


--------------------------------------------------------------------------------------------------------


 k-point  1 :   0.0000 0.0000 0.0000  plane waves:   43405

 maximum and minimum number of plane-waves per node :     10852    10850

 maximum number of plane-waves:     43405
 maximum index in each direction: 
   IXMAX=   22   IYMAX=   22   IZMAX=   24
   IXMIN=  -22   IYMIN=  -22   IZMIN=  -24


 real space projection operators:
  total allocation   :      30006.27 KBytes
  max/ min on nodes  :       7665.66       7336.44


 parallel 3D FFT for wavefunctions:
    minimum data exchange during FFTs selected (reduces bandwidth)
 parallel 3D FFT for charge:
    minimum data exchange during FFTs selected (reduces bandwidth)


 FFT grid for exact exchange (Hartree Fock) 
  NGX = 70; NGY = 70; NGZ = 80

 
 Radii for the augmentation spheres in the non-local exchange
 for species   1 augmentation radius   0.820 (default was   0.722)
       energy cutoff for augmentation   1600.0
 for species   2 augmentation radius   1.055 (default was   0.989)
       energy cutoff for augmentation   1600.0
 for species   3 augmentation radius   1.041 (default was   1.041)
       energy cutoff for augmentation   1600.0
 for species   4 augmentation radius   1.279 (default was   1.125)
       energy cutoff for augmentation   1600.0

 real space projection operators:
  total allocation   :       4788.33 KBytes
  max/ min on nodes  :       1219.96       1174.24

 Maximum index for augmentation-charges in exchange          370
  SETUP_FOCK is finished

 total amount of memory used by VASP MPI-rank0   216953. kBytes
=======================================================================

   base      :      30000. kBytes
   nonlr-proj:      22663. kBytes
   fftplans  :      69849. kBytes
   grid      :      56122. kBytes
   one-center:        870. kBytes
   HF        :        194. kBytes
   wavefun   :      37255. kBytes
 
     INWAV:  cpu time    0.0000: real time    0.0002
 initial charge density was supplied:
 charge density of overlapping atoms calculated
 number of electron     606.0000000 magnetization     111.0000000
 keeping initial charge density in first step


--------------------------------------------------------------------------------------------------------


 Maximum index for non-local projection operator         1307
 Maximum index for augmentation-charges         7839 (set IRDMAX)


--------------------------------------------------------------------------------------------------------


 First call to EWALD:  gamma=   0.133
 Maximum number of real-space cells 3x 3x 3
 Maximum number of reciprocal cells 3x 3x 3

    FEWALD:  cpu time    0.0064: real time    0.0064


--------------------------------------- Iteration      1(   1)  ---------------------------------------


    POTLOK:  cpu time    1.6896: real time    1.7115
    SETDIJ:  cpu time    0.6905: real time    0.6921
     EDDAV:  cpu time   15.0273: real time   15.0697
       DOS:  cpu time    0.0006: real time    0.0006
    --------------------------------------------
      LOOP:  cpu time   17.4080: real time   17.4739

 eigenvalue-minimisations  :  1720
 total energy-change (2. order) : 0.5313630E+04  (-0.2417634E+05)
 number of electron     606.0000000 magnetization     111.0000000
 augmentation part      606.0000000 magnetization     111.0000000

 Free energy of the ion-electron system (eV)
  ---------------------------------------------------
  alpha Z        PSCENC =       614.69563646
  Ewald energy   TEWEN  =     -5524.29743315
  -Hartree energ DENC   =    -28837.20235139
  -exchange      EXHF   =         0.00000000
  -V(xc)+E(xc)   XCENC  =      1225.24955642
  PAW double counting   =     21819.12590245   -21254.05462015
  entropy T*S    EENTRO =        -0.03435710
  eigenvalues    EBANDS =      -155.17161894
  atomic energy  EATOM  =     37425.31890132
  Solvation  Ediel_sol  =         0.00000000
  ---------------------------------------------------
  free energy    TOTEN  =      5313.62961593 eV

  energy without entropy =     5313.66397303  energy(sigma->0) =     5313.64679448
  exchange ACFDT corr.  =         0.00000000  see jH, gK, PRB 81, 115126


--------------------------------------------------------------------------------------------------------




--------------------------------------- Iteration      1(   2)  ---------------------------------------


     EDDAV:  cpu time   17.3900: real time   17.4350
       DOS:  cpu time    0.0003: real time    0.0003
    --------------------------------------------
      LOOP:  cpu time   17.3903: real time   17.4352

 eigenvalue-minimisations  :  2084
 total energy-change (2. order) :-0.4275552E+04  (-0.4020877E+04)
 number of electron     606.0000000 magnetization     111.0000000
 augmentation part      606.0000000 magnetization     111.0000000

 Free energy of the ion-electron system (eV)
  ---------------------------------------------------
  alpha Z        PSCENC =       614.69563646
  Ewald energy   TEWEN  =     -5524.29743315
  -Hartree energ DENC   =    -28837.20235139
  -exchange      EXHF   =         0.00000000
  -V(xc)+E(xc)   XCENC  =      1225.24955642
  PAW double counting   =     21819.12590245   -21254.05462015
  entropy T*S    EENTRO =        -0.00000000
  eigenvalues    EBANDS =     -4430.75816089
  atomic energy  EATOM  =     37425.31890132
  Solvation  Ediel_sol  =         0.00000000
  ---------------------------------------------------
  free energy    TOTEN  =      1038.07743108 eV

  energy without entropy =     1038.07743108  energy(sigma->0) =     1038.07743108
  exchange ACFDT corr.  =         0.00000000  see jH, gK, PRB 81, 115126


--------------------------------------------------------------------------------------------------------




--------------------------------------- Iteration      1(   3)  ---------------------------------------


     EDDAV:  cpu time   16.9107: real time   16.9570
       DOS:  cpu time    0.0003: real time    0.0003
    --------------------------------------------
      LOOP:  cpu time   16.9110: real time   16.9573

 eigenvalue-minimisations  :  2008
 total energy-change (2. order) :-0.5054662E+03  (-0.5012170E+03)
 number of electron     606.0000000 magnetization     111.0000000
 augmentation part      606.0000000 magnetization     111.0000000

 Free energy of the ion-electron system (eV)
  ---------------------------------------------------
  alpha Z        PSCENC =       614.69563646
  Ewald energy   TEWEN  =     -5524.29743315
  -Hartree energ DENC   =    -28837.20235139
  -exchange      EXHF   =         0.00000000
  -V(xc)+E(xc)   XCENC  =      1225.24955642
  PAW double counting   =     21819.12590245   -21254.05462015
  entropy T*S    EENTRO =        -0.00000000
  eigenvalues    EBANDS =     -4936.22438993
  atomic energy  EATOM  =     37425.31890132
  Solvation  Ediel_sol  =         0.00000000
  ---------------------------------------------------
  free energy    TOTEN  =       532.61120203 eV

  energy without entropy =      532.61120203  energy(sigma->0) =      532.61120203
  exchange ACFDT corr.  =         0.00000000  see jH, gK, PRB 81, 115126


--------------------------------------------------------------------------------------------------------




--------------------------------------- Iteration      1(   4)  ---------------------------------------


     EDDAV:  cpu time   17.2929: real time   17.3356
       DOS:  cpu time    0.0003: real time    0.0003
    --------------------------------------------
      LOOP:  cpu time   17.2932: real time   17.3359

 eigenvalue-minimisations  :  2064
 total energy-change (2. order) :-0.1118727E+02  (-0.1113629E+02)
 number of electron     606.0000000 magnetization     111.0000000
 augmentation part      606.0000000 magnetization     111.0000000

 Free energy of the ion-electron system (eV)
  ---------------------------------------------------
  alpha Z        PSCENC =       614.69563646
  Ewald energy   TEWEN  =     -5524.29743315
  -Hartree energ DENC   =    -28837.20235139
  -exchange      EXHF   =         0.00000000
  -V(xc)+E(xc)   XCENC  =      1225.24955642
  PAW double counting   =     21819.12590245   -21254.05462015
  entropy T*S    EENTRO =        -0.00000000
  eigenvalues    EBANDS =     -4947.41165938
  atomic energy  EATOM  =     37425.31890132
  Solvation  Ediel_sol  =         0.00000000
  ---------------------------------------------------
  free energy    TOTEN  =       521.42393258 eV

  energy without entropy =      521.42393258  energy(sigma->0) =      521.42393258
  exchange ACFDT corr.  =         0.00000000  see jH, gK, PRB 81, 115126


--------------------------------------------------------------------------------------------------------




--------------------------------------- Iteration      1(   5)  ---------------------------------------


     EDDAV:  cpu time 2319.1675: real time 2325.6374
       DOS:  cpu time    0.0003: real time    0.0003
    CHARGE:  cpu time    1.2881: real time    1.2913
    MIXING:  cpu time    0.0066: real time    0.0067
    --------------------------------------------
      LOOP:  cpu time 2320.4626: real time 2326.9357

 eigenvalue-minimisations  :  2144
 total energy-change (2. order) :-0.1799955E+04  (-0.4297560E+02)
 number of electron     606.0000002 magnetization     -66.6000000
 augmentation part       69.4091625 magnetization     -65.6137579

 Free energy of the ion-electron system (eV)
  ---------------------------------------------------
  alpha Z        PSCENC =       614.69563646
  Ewald energy   TEWEN  =     -5524.29743315
  -Hartree energ DENC   =    -28837.20235139
  -exchange      EXHF   =      1736.02482628
  -V(xc)+E(xc)   XCENC  =      1225.24955642
  PAW double counting   =     21819.12590245   -21254.05462015
  entropy T*S    EENTRO =        -0.00000000
  eigenvalues    EBANDS =     -8483.39192447
  atomic energy  EATOM  =     37425.31890132
  Solvation  Ediel_sol  =         0.00000000
  ---------------------------------------------------
  free energy    TOTEN  =     -1278.53150623 eV

  energy without entropy =    -1278.53150623  energy(sigma->0) =    -1278.53150623
  exchange ACFDT corr.  =        -0.00000000  see jH, gK, PRB 81, 115126


--------------------------------------------------------------------------------------------------------




--------------------------------------- Iteration      1(   6)  ---------------------------------------


    POTLOK:  cpu time    1.4530: real time    1.4592
    SETDIJ:  cpu time    0.6881: real time    0.6899
     EDDAV:  cpu time 2151.3002: real time 2158.0293
       DOS:  cpu time    0.0003: real time    0.0003
    CHARGE:  cpu time    1.2930: real time    1.2961
    MIXING:  cpu time    0.0066: real time    0.0067
    --------------------------------------------
      LOOP:  cpu time 2154.7412: real time 2161.4815

 eigenvalue-minimisations  :  1948
 total energy-change (2. order) : 0.1826146E+03  (-0.2851973E+02)
 number of electron     606.0000003 magnetization      39.9600000
 augmentation part       63.2227595 magnetization      40.1601974

 Free energy of the ion-electron system (eV)
  ---------------------------------------------------
  alpha Z        PSCENC =       614.69563646
  Ewald energy   TEWEN  =     -5524.29743315
  -Hartree energ DENC   =    -30178.33322232
  -exchange      EXHF   =      1862.16734211
  -V(xc)+E(xc)   XCENC  =      1337.21329440
  PAW double counting   =     25610.41849038   -25063.79513858
  entropy T*S    EENTRO =        -0.00000000
  eigenvalues    EBANDS =     -7179.30475519
  atomic energy  EATOM  =     37425.31890132
  Solvation  Ediel_sol  =         0.00000000
  ---------------------------------------------------
  free energy    TOTEN  =     -1095.91688457 eV

  energy without entropy =    -1095.91688457  energy(sigma->0) =    -1095.91688457
  exchange ACFDT corr.  =         0.00000000  see jH, gK, PRB 81, 115126


--------------------------------------------------------------------------------------------------------




--------------------------------------- Iteration      1(   7)  ---------------------------------------


    POTLOK:  cpu time    1.4931: real time    1.4994
    SETDIJ:  cpu time    0.6890: real time    0.6906
     EDDAV:  cpu time 2064.0385: real time 2069.6455
       DOS:  cpu time    0.0003: real time    0.0003
    CHARGE:  cpu time    1.2737: real time    1.2768
    MIXING:  cpu time    0.0133: real time    0.0133
    --------------------------------------------
      LOOP:  cpu time 2067.5079: real time 2073.1258

 eigenvalue-minimisations  :  1836
 total energy-change (2. order) :-0.3241640E+02  (-0.1441371E+02)
 number of electron     606.0000003 magnetization     -23.9760000
 augmentation part       59.5742896 magnetization     -24.2647908

 Free energy of the ion-electron system (eV)
  ---------------------------------------------------
  alpha Z        PSCENC =       614.69563646
  Ewald energy   TEWEN  =     -5524.29743315
  -Hartree energ DENC   =    -30660.43069725
  -exchange      EXHF   =      1785.67417485
  -V(xc)+E(xc)   XCENC  =      1329.57836873
  PAW double counting   =     27092.75374989   -26549.08122524
  entropy T*S    EENTRO =        -0.00000000
  eigenvalues    EBANDS =     -6642.54476389
  atomic energy  EATOM  =     37425.31890132
  Solvation  Ediel_sol  =         0.00000000
  ---------------------------------------------------
  free energy    TOTEN  =     -1128.33328829 eV

  energy without entropy =    -1128.33328829  energy(sigma->0) =    -1128.33328829
  exchange ACFDT corr.  =         0.00000000  see jH, gK, PRB 81, 115126


--------------------------------------------------------------------------------------------------------




--------------------------------------- Iteration      1(   8)  ---------------------------------------


    POTLOK:  cpu time    1.4908: real time    1.4977
    SETDIJ:  cpu time    0.6854: real time    0.6870
     EDDAV:  cpu time 2026.3594: real time 2031.3846
       DOS:  cpu time    0.0003: real time    0.0003
    CHARGE:  cpu time    1.2998: real time    1.3029
    MIXING:  cpu time    0.0069: real time    0.0069
    --------------------------------------------
      LOOP:  cpu time 2029.8427: real time 2034.8794

 eigenvalue-minimisations  :  1780
 total energy-change (2. order) :-0.2022088E+02  (-0.4592133E+01)
 number of electron     606.0000003 magnetization      14.3856000
 augmentation part       59.1329335 magnetization      14.3495082

 Free energy of the ion-electron system (eV)
  ---------------------------------------------------
  alpha Z        PSCENC =       614.69563646
  Ewald energy   TEWEN  =     -5524.29743315
  -Hartree energ DENC   =    -30707.87486542
  -exchange      EXHF   =      1739.71573865
  -V(xc)+E(xc)   XCENC  =      1317.00103471
  PAW double counting   =     27420.68095885   -26875.21231623
  entropy T*S    EENTRO =        -0.00000000
  eigenvalues    EBANDS =     -6558.58182446
  atomic energy  EATOM  =     37425.31890132
  Solvation  Ediel_sol  =         0.00000000
  ---------------------------------------------------
  free energy    TOTEN  =     -1148.55416928 eV

  energy without entropy =    -1148.55416928  energy(sigma->0) =    -1148.55416928
  exchange ACFDT corr.  =        -0.00000000  see jH, gK, PRB 81, 115126


--------------------------------------------------------------------------------------------------------




--------------------------------------- Iteration      1(   9)  ---------------------------------------


    POTLOK:  cpu time    1.5226: real time    1.5309
    SETDIJ:  cpu time    0.6870: real time    0.6886
     EDDAV:  cpu time 2015.7464: real time 2021.3653
       DOS:  cpu time    0.0003: real time    0.0003
    CHARGE:  cpu time    1.2914: real time    1.2945
    MIXING:  cpu time    0.0123: real time    0.0123
    --------------------------------------------
      LOOP:  cpu time 2019.2600: real time 2024.8919

 eigenvalue-minimisations  :  1776
 total energy-change (2. order) :-0.1336296E+02  (-0.1941113E+01)
 number of electron     606.0000004 magnetization      -8.6313600
 augmentation part       59.3482020 magnetization      -8.7589831

 Free energy of the ion-electron system (eV)
  ---------------------------------------------------
  alpha Z        PSCENC =       614.69563646
  Ewald energy   TEWEN  =     -5524.29743315
  -Hartree energ DENC   =    -30709.00350847
  -exchange      EXHF   =      1732.15683046
  -V(xc)+E(xc)   XCENC  =      1304.61362803
  PAW double counting   =     27538.52807340   -26991.84452209
  entropy T*S    EENTRO =        -0.00000000
  eigenvalues    EBANDS =     -6552.08473109
  atomic energy  EATOM  =     37425.31890132
  Solvation  Ediel_sol  =         0.00000000
  ---------------------------------------------------
  free energy    TOTEN  =     -1161.91712513 eV

  energy without entropy =    -1161.91712513  energy(sigma->0) =    -1161.91712513
  exchange ACFDT corr.  =        -0.00000000  see jH, gK, PRB 81, 115126


--------------------------------------------------------------------------------------------------------




--------------------------------------- Iteration      1(  10)  ---------------------------------------


    POTLOK:  cpu time    1.5359: real time    1.5421
    SETDIJ:  cpu time    0.6862: real time    0.6878
     EDDAV:  cpu time 2060.5268: real time 2066.1313
       DOS:  cpu time    0.0003: real time    0.0003
    CHARGE:  cpu time    1.3123: real time    1.3154
    MIXING:  cpu time    0.0069: real time    0.0069
    --------------------------------------------
      LOOP:  cpu time 2064.0684: real time 2069.6839

 eigenvalue-minimisations  :  1812
 total energy-change (2. order) :-0.3820372E+01  (-0.8638401E+00)
 number of electron     606.0000004 magnetization       5.1788160
 augmentation part       59.5576515 magnetization       5.1636087

 Free energy of the ion-electron system (eV)
  ---------------------------------------------------
  alpha Z        PSCENC =       614.69563646
  Ewald energy   TEWEN  =     -5524.29743315
  -Hartree energ DENC   =    -30731.31917908
  -exchange      EXHF   =      1734.15141713
  -V(xc)+E(xc)   XCENC  =      1302.47573179
  PAW double counting   =     27637.86531815   -27090.81828525
  entropy T*S    EENTRO =        -0.00000000
  eigenvalues    EBANDS =     -6533.80960434
  atomic energy  EATOM  =     37425.31890132
  Solvation  Ediel_sol  =         0.00000000
  ---------------------------------------------------
  free energy    TOTEN  =     -1165.73749698 eV

  energy without entropy =    -1165.73749698  energy(sigma->0) =    -1165.73749698
  exchange ACFDT corr.  =        -0.00000000  see jH, gK, PRB 81, 115126


--------------------------------------------------------------------------------------------------------




--------------------------------------- Iteration      1(  11)  ---------------------------------------


    POTLOK:  cpu time    1.5942: real time    1.6104
    SETDIJ:  cpu time    0.6864: real time    0.6880
     EDDAV:  cpu time 2001.4907: real time 2007.1339
       DOS:  cpu time    0.0003: real time    0.0003
    CHARGE:  cpu time    1.2812: real time    1.2843
    MIXING:  cpu time    0.0066: real time    0.0066
    --------------------------------------------
      LOOP:  cpu time 2005.0594: real time 2010.7237

 eigenvalue-minimisations  :  1760
 total energy-change (2. order) :-0.4734966E+01  (-0.3667614E+00)
 number of electron     606.0000004 magnetization      -3.1072896
 augmentation part       59.5562243 magnetization      -3.1379983

 Free energy of the ion-electron system (eV)
  ---------------------------------------------------
  alpha Z        PSCENC =       614.69563646
  Ewald energy   TEWEN  =     -5524.29743315
  -Hartree energ DENC   =    -30763.02893338
  -exchange      EXHF   =      1735.79024977
  -V(xc)+E(xc)   XCENC  =      1299.93018062
  PAW double counting   =     27719.26137436   -27172.24151133
  entropy T*S    EENTRO =        -0.00000000
  eigenvalues    EBANDS =     -6505.90092749
  atomic energy  EATOM  =     37425.31890132
  Solvation  Ediel_sol  =         0.00000000
  ---------------------------------------------------
  free energy    TOTEN  =     -1170.47246281 eV

  energy without entropy =    -1170.47246281  energy(sigma->0) =    -1170.47246281
  exchange ACFDT corr.  =        -0.00000000  see jH, gK, PRB 81, 115126


--------------------------------------------------------------------------------------------------------




--------------------------------------- Iteration      1(  12)  ---------------------------------------


    POTLOK:  cpu time    1.5947: real time    1.6007
    SETDIJ:  cpu time    0.6857: real time    0.6875
     EDDAV:  cpu time 2013.4320: real time 2020.7754
       DOS:  cpu time    0.0003: real time    0.0003
    CHARGE:  cpu time    1.2903: real time    1.2935
    MIXING:  cpu time    0.0132: real time    0.0133
    --------------------------------------------
      LOOP:  cpu time 2017.0163: real time 2024.3706

 eigenvalue-minimisations  :  1772
 total energy-change (2. order) :-0.4529002E+00  (-0.1084718E+00)
 number of electron     606.0000004 magnetization       1.8643738
 augmentation part       59.5242165 magnetization       1.8635860

 Free energy of the ion-electron system (eV)
  ---------------------------------------------------
  alpha Z        PSCENC =       614.69563646
  Ewald energy   TEWEN  =     -5524.29743315
  -Hartree energ DENC   =    -30783.38759273
  -exchange      EXHF   =      1735.14913521
  -V(xc)+E(xc)   XCENC  =      1300.33951875
  PAW double counting   =     27761.46934874   -27214.49320250
  entropy T*S    EENTRO =        -0.00000000
  eigenvalues    EBANDS =     -6485.71967506
  atomic energy  EATOM  =     37425.31890132
  Solvation  Ediel_sol  =         0.00000000
  ---------------------------------------------------
  free energy    TOTEN  =     -1170.92536296 eV

  energy without entropy =    -1170.92536296  energy(sigma->0) =    -1170.92536296
  exchange ACFDT corr.  =        -0.00000000  see jH, gK, PRB 81, 115126


--------------------------------------------------------------------------------------------------------




--------------------------------------- Iteration      1(  13)  ---------------------------------------


    POTLOK:  cpu time    1.7025: real time    1.7279
    SETDIJ:  cpu time    0.6862: real time    0.6878
     EDDAV:  cpu time 2043.1321: real time 2049.4484
       DOS:  cpu time    0.0003: real time    0.0003
    CHARGE:  cpu time    1.2901: real time    1.2933
    MIXING:  cpu time    0.0066: real time    0.0066
    --------------------------------------------
      LOOP:  cpu time 2046.8178: real time 2053.1643

 eigenvalue-minimisations  :  1808
 total energy-change (2. order) :-0.8171555E+00  (-0.4247120E-01)
 number of electron     606.0000004 magnetization      -1.1186243
 augmentation part       59.4970799 magnetization      -1.1245994

 Free energy of the ion-electron system (eV)
  ---------------------------------------------------
  alpha Z        PSCENC =       614.69563646
  Ewald energy   TEWEN  =     -5524.29743315
  -Hartree energ DENC   =    -30795.76012506
  -exchange      EXHF   =      1734.55527398
  -V(xc)+E(xc)   XCENC  =      1300.11818017
  PAW double counting   =     27779.57373782   -27232.58936357
  entropy T*S    EENTRO =        -0.00000000
  eigenvalues    EBANDS =     -6473.35732643
  atomic energy  EATOM  =     37425.31890132
  Solvation  Ediel_sol  =         0.00000000
  ---------------------------------------------------
  free energy    TOTEN  =     -1171.74251846 eV

  energy without entropy =    -1171.74251846  energy(sigma->0) =    -1171.74251846
  exchange ACFDT corr.  =        -0.00000000  see jH, gK, PRB 81, 115126


--------------------------------------------------------------------------------------------------------




--------------------------------------- Iteration      1(  14)  ---------------------------------------


    POTLOK:  cpu time    1.7095: real time    1.7167
    SETDIJ:  cpu time    0.6872: real time    0.6888
     EDDAV:  cpu time 2041.0640: real time 2047.3175
       DOS:  cpu time    0.0003: real time    0.0003
    CHARGE:  cpu time    1.3130: real time    1.3161
    MIXING:  cpu time    0.0066: real time    0.0066
    --------------------------------------------
      LOOP:  cpu time 2044.7807: real time 2051.0461

 eigenvalue-minimisations  :  1800
 total energy-change (2. order) : 0.1955739E-01  (-0.1171175E-01)
 number of electron     606.0000004 magnetization       0.6711746
 augmentation part       59.4932309 magnetization       0.6735452

 Free energy of the ion-electron system (eV)
  ---------------------------------------------------
  alpha Z        PSCENC =       614.69563646
  Ewald energy   TEWEN  =     -5524.29743315
  -Hartree energ DENC   =    -30802.69023209
  -exchange      EXHF   =      1734.05945529
  -V(xc)+E(xc)   XCENC  =      1300.24469311
  PAW double counting   =     27785.21209082   -27238.19474020
  entropy T*S    EENTRO =        -0.00000000
  eigenvalues    EBANDS =     -6466.07133262
  atomic energy  EATOM  =     37425.31890132
  Solvation  Ediel_sol  =         0.00000000
  ---------------------------------------------------
  free energy    TOTEN  =     -1171.72296107 eV

  energy without entropy =    -1171.72296107  energy(sigma->0) =    -1171.72296107
  exchange ACFDT corr.  =        -0.00000000  see jH, gK, PRB 81, 115126


--------------------------------------------------------------------------------------------------------




--------------------------------------- Iteration      1(  15)  ---------------------------------------


    POTLOK:  cpu time    1.7152: real time    1.7224
    SETDIJ:  cpu time    0.6876: real time    0.6892
     EDDAV:  cpu time 2166.9383: real time 2174.0259
       DOS:  cpu time    0.0003: real time    0.0003
    CHARGE:  cpu time    1.3055: real time    1.3086
    MIXING:  cpu time    0.0156: real time    0.0157
    --------------------------------------------
      LOOP:  cpu time 2170.6625: real time 2177.7620

 eigenvalue-minimisations  :  1952
 total energy-change (2. order) :-0.8998158E-01  (-0.5435454E-02)
 number of electron     606.0000004 magnetization      -0.4027047
 augmentation part       59.4921569 magnetization      -0.4037630

 Free energy of the ion-electron system (eV)
  ---------------------------------------------------
  alpha Z        PSCENC =       614.69563646
  Ewald energy   TEWEN  =     -5524.29743315
  -Hartree energ DENC   =    -30808.39151312
  -exchange      EXHF   =      1733.99503926
  -V(xc)+E(xc)   XCENC  =      1300.28787600
  PAW double counting   =     27787.70028804   -27240.65721157
  entropy T*S    EENTRO =        -0.00000000
  eigenvalues    EBANDS =     -6460.46452589
  atomic energy  EATOM  =     37425.31890132
  Solvation  Ediel_sol  =         0.00000000
  ---------------------------------------------------
  free energy    TOTEN  =     -1171.81294265 eV

  energy without entropy =    -1171.81294265  energy(sigma->0) =    -1171.81294265
  exchange ACFDT corr.  =        -0.00000000  see jH, gK, PRB 81, 115126


--------------------------------------------------------------------------------------------------------




--------------------------------------- Iteration      1(  16)  ---------------------------------------


    POTLOK:  cpu time    1.7119: real time    1.7189
    SETDIJ:  cpu time    0.6885: real time    0.6902
     EDDAV:  cpu time 2090.0935: real time 2096.5344
       DOS:  cpu time    0.0003: real time    0.0003
    CHARGE:  cpu time    1.3125: real time    1.3157
    MIXING:  cpu time    0.0069: real time    0.0069
    --------------------------------------------
      LOOP:  cpu time 2093.8136: real time 2100.2663

 eigenvalue-minimisations  :  1872
 total energy-change (2. order) : 0.6825027E-03  (-0.1008329E-02)
 number of electron     606.0000004 magnetization       0.2416228
 augmentation part       59.4915734 magnetization       0.2426500

 Free energy of the ion-electron system (eV)
  ---------------------------------------------------
  alpha Z        PSCENC =       614.69563646
  Ewald energy   TEWEN  =     -5524.29743315
  -Hartree energ DENC   =    -30813.06888441
  -exchange      EXHF   =      1733.94690345
  -V(xc)+E(xc)   XCENC  =      1300.35994491
  PAW double counting   =     27788.83849742   -27241.77918495
  entropy T*S    EENTRO =        -0.00000000
  eigenvalues    EBANDS =     -6455.82664121
  atomic energy  EATOM  =     37425.31890132
  Solvation  Ediel_sol  =         0.00000000
  ---------------------------------------------------
  free energy    TOTEN  =     -1171.81226015 eV

  energy without entropy =    -1171.81226015  energy(sigma->0) =    -1171.81226015
  exchange ACFDT corr.  =        -0.00000000  see jH, gK, PRB 81, 115126


--------------------------------------------------------------------------------------------------------




--------------------------------------- Iteration      1(  17)  ---------------------------------------


    POTLOK:  cpu time    1.7215: real time    1.7285
    SETDIJ:  cpu time    0.6847: real time    0.6864
     EDDAV:  cpu time 2066.0254: real time 2072.7404
       DOS:  cpu time    0.0003: real time    0.0003
    CHARGE:  cpu time    1.3026: real time    1.3058
    MIXING:  cpu time    0.0069: real time    0.0069
    --------------------------------------------
      LOOP:  cpu time 2069.7414: real time 2076.4682

 eigenvalue-minimisations  :  1840
 total energy-change (2. order) :-0.4501029E-02  (-0.5786402E-03)
 number of electron     606.0000004 magnetization      -0.1449737
 augmentation part       59.4895028 magnetization      -0.1455455

 Free energy of the ion-electron system (eV)
  ---------------------------------------------------
  alpha Z        PSCENC =       614.69563646
  Ewald energy   TEWEN  =     -5524.29743315
  -Hartree energ DENC   =    -30817.01466875
  -exchange      EXHF   =      1733.92741629
  -V(xc)+E(xc)   XCENC  =      1300.41976895
  PAW double counting   =     27789.29612746   -27242.22689088
  entropy T*S    EENTRO =        -0.00000000
  eigenvalues    EBANDS =     -6451.93561889
  atomic energy  EATOM  =     37425.31890132
  Solvation  Ediel_sol  =         0.00000000
  ---------------------------------------------------
  free energy    TOTEN  =     -1171.81676118 eV

  energy without entropy =    -1171.81676118  energy(sigma->0) =    -1171.81676118
  exchange ACFDT corr.  =         0.00000000  see jH, gK, PRB 81, 115126


--------------------------------------------------------------------------------------------------------




--------------------------------------- Iteration      1(  18)  ---------------------------------------


    POTLOK:  cpu time    1.7148: real time    1.7209
    SETDIJ:  cpu time    0.6873: real time    0.6890
     EDDAV:  cpu time 2221.7491: real time 2229.3208
       DOS:  cpu time    0.0003: real time    0.0003
    CHARGE:  cpu time    1.3074: real time    1.3107
    MIXING:  cpu time    0.0154: real time    0.0154
    --------------------------------------------
      LOOP:  cpu time 2225.4743: real time 2233.0571

 eigenvalue-minimisations  :  2024
 total energy-change (2. order) :-0.1756671E-02  (-0.2331369E-03)
 number of electron     606.0000004 magnetization       0.0869842
 augmentation part       59.4879603 magnetization       0.0874007

 Free energy of the ion-electron system (eV)
  ---------------------------------------------------
  alpha Z        PSCENC =       614.69563646
  Ewald energy   TEWEN  =     -5524.29743315
  -Hartree energ DENC   =    -30820.20321704
  -exchange      EXHF   =      1733.89418217
  -V(xc)+E(xc)   XCENC  =      1300.46371451
  PAW double counting   =     27789.24621848   -27242.16950012
  entropy T*S    EENTRO =        -0.00000000
  eigenvalues    EBANDS =     -6448.76702047
  atomic energy  EATOM  =     37425.31890132
  Solvation  Ediel_sol  =         0.00000000
  ---------------------------------------------------
  free energy    TOTEN  =     -1171.81851785 eV

  energy without entropy =    -1171.81851785  energy(sigma->0) =    -1171.81851785
  exchange ACFDT corr.  =         0.00000000  see jH, gK, PRB 81, 115126


--------------------------------------------------------------------------------------------------------




--------------------------------------- Iteration      1(  19)  ---------------------------------------


    POTLOK:  cpu time    1.7125: real time    1.7209
    SETDIJ:  cpu time    0.6863: real time    0.6881
     EDDAV:  cpu time 2117.5095: real time 2125.3192
       DOS:  cpu time    0.0003: real time    0.0003
    CHARGE:  cpu time    1.3008: real time    1.3040
    MIXING:  cpu time    0.0066: real time    0.0067
    --------------------------------------------
      LOOP:  cpu time 2121.2161: real time 2129.0391

 eigenvalue-minimisations  :  1912
 total energy-change (2. order) :-0.1632624E-02  (-0.1337171E-03)
 number of electron     606.0000004 magnetization      -0.0521905
 augmentation part       59.4866844 magnetization      -0.0524764

 Free energy of the ion-electron system (eV)
  ---------------------------------------------------
  alpha Z        PSCENC =       614.69563646
  Ewald energy   TEWEN  =     -5524.29743315
  -Hartree energ DENC   =    -30822.80416657
[...]
      4.67511      7.98166      2.63938         0.420365     -0.106147     -0.188323
      2.09925      3.70635     12.08660        -0.351569      0.104923      0.065222
      4.23396      0.17555      2.63297        -0.120738      0.355165     -0.228834
      2.32720     11.58062     12.25107         0.210531     -0.359101      0.062195
     -2.32994     11.62687     12.38863        -0.258360     -0.261448      0.017567
      9.22481      0.05156      2.41477         0.327211      0.210095     -0.275075
      4.54478      7.91027     12.04086        -0.480630      0.093563     -0.064846
      2.31314      3.81843      2.34131         0.198142     -0.368220     -0.037589
     -2.09489      3.95406     12.28647         0.388683     -0.092967      0.019633
      8.89466      7.94821      2.62228        -0.430139     -0.031591     -0.171678
      4.44950      7.57138      7.44586        -0.293221     -0.260869      0.049328
     -2.10814     11.72481      7.00117         0.345851      0.361421      0.015850
     11.29260      3.97442      7.36008        -0.137216      0.352517      0.006435
      2.18171      4.11406      7.10959         0.270382      0.319471      0.145797
      9.07935      7.59600      7.44771         0.190710     -0.287927     -0.207362
      8.79919      0.06087      7.61189        -0.344744     -0.182233     -0.108721
     -0.06898      2.88248      1.89362         0.018447     -0.137757     -0.342493
      6.96816      8.83381     12.73212         0.131545     -0.193435      0.063291
      4.40107     10.39484      1.69838         0.054214     -0.000941     -0.213388
      2.35505      1.24252     12.85832        -0.028017      0.008219      0.278496
     -4.52744     10.44882      1.92398        -0.046303      0.018520     -0.310463
     11.12395      1.41081     12.70737         0.121242     -0.083898      0.343903
      6.77427      6.50957      7.01486        -0.239033      0.083592     -0.453375
      6.71975      1.02338      2.58207        -0.277633      0.139671      0.339481
      4.21192      2.44346      6.90762         0.113795      0.154470     -0.395768
      9.24860      5.36930      2.89650        -0.133689     -0.041000      0.302288
      9.28936      2.42353      6.71033        -0.125293      0.008114     -0.235173
      4.32621      5.40110      2.89309         0.105307     -0.078662      0.281387
     -0.02623     10.53258     11.91563         0.101783      0.005815     -0.350535
     -0.07442      5.05839      7.99728         0.145288      0.083874      0.197653
     -2.14339      6.55671     11.84144        -0.003133     -0.138651     -0.211468
      2.51744      9.30468      7.70341        -0.133132     -0.209800      0.423289
      2.45615      6.30427     11.82654         0.032024      0.090692     -0.372107
     -2.57967      9.18317      8.11975         0.093068     -0.162804      0.025993
     11.83030      3.04781     14.70262         0.171880     -0.307955     -0.019881
      8.64069      8.58732      0.07751        -0.247047      0.332150     -0.088403
      5.03163      8.40796      0.03897         0.185131      0.363505      0.137959
      1.69281      3.12733     14.64446        -0.147616     -0.351859     -0.019727
     -3.19857     11.83340      0.06839        -0.414441     -0.020192     -0.030136
      5.08660      6.90478      4.96942         0.072020     -0.254608     -0.055589
      8.27538      0.57643      5.05220        -0.027574      0.358087      0.224979
      5.27505      1.27361      4.79950        -0.031310      0.058797     -0.051260
      8.48920      6.86143      4.97514        -0.152407     -0.230613     -0.190768
     10.43199      4.09580      4.89994        -0.366836     -0.169304     -0.106122
      3.33290      3.81512      4.77275         0.254424      0.051401     -0.029074
     -1.60368     11.26951      9.85127         0.054218     -0.356538      0.333210
      2.01576      4.81366      9.66813        -0.248009      0.244108      0.079787
     -2.01361      4.80629      9.82827         0.401287      0.196308      0.060947
      1.72373     10.60963      9.87158        -0.112037     -0.173269      0.093316
      3.24653      7.78172      9.77756        -0.047132     -0.033503      0.107403
     -3.69297      7.47673      9.90113         0.697687      0.511467      0.125898
      9.92266      0.11181     14.70254         0.427537     -0.100294     -0.018338
     12.04621      2.69021      1.50786         0.006552      0.066837      0.080069
      8.47056      8.96942     13.27070         0.371071     -0.010683     -0.001525
      5.21908      9.01814      1.50403        -0.060642      0.041220      0.156728
      1.51172      2.59139     13.11850         0.007532     -0.021187     -0.026293
      3.02071      0.00526      1.58225         0.040451     -0.038113      0.115424
      3.66797     11.81522     13.15059        -0.063412      0.075614      0.031481
     -3.67495     11.74730     13.27627         0.082713      0.035991     -0.065948
      3.68545     11.80823      1.48865        -0.098618     -0.022283      0.095954
      1.47791      2.75249      1.45223        -0.044051      0.056002      0.096761
     12.04879      2.66009     13.14585        -0.063571      0.082513     -0.056768
      8.34909      9.08458      1.59953         0.070302      0.000201      0.171422
      5.23289      6.49536      6.51962         0.317775     -0.070463      0.051651
      5.24942      1.27173      6.42638        -0.029395     -0.050820      0.062525
      8.34884      6.61860      3.36633         0.092912     -0.007504      0.166269
      9.95880      3.84833      6.42700        -0.148018      0.203418      0.230042
      3.68727      3.94937      3.19000        -0.023127      0.029093      0.016698
      9.88975      3.94135      3.35421         0.019490      0.038540      0.110010
      3.60630      3.82773      6.36833         0.023198     -0.049701      0.084565
      5.24755      1.31617      3.19251         0.164045     -0.054966      0.068016
      8.32200      6.49142      6.53245         0.106038     -0.130383      0.535952
      5.22889      6.65584      3.36586        -0.031624      0.001411      0.069136
      8.26254      1.16995      6.53592         0.075157      0.089748      0.045127
     -1.54877     10.66956     11.32740        -0.052501     -0.111096     -0.106404
      1.53150      5.14759      8.15640        -0.145969     -0.061732     -0.138396
     -1.54011      5.13943     11.35262        -0.190805      0.154770     -0.144336
      1.53383     10.49638      8.26386        -0.152036      0.084136     -0.107140
      3.07203      7.74483     11.39559        -0.203043      0.087947      0.077824
     -3.25510      7.77825      8.33480        -0.399877     -0.238193      0.583891
      3.04576      7.85734      8.18300        -0.051794      0.035759     -0.237511
     -3.06141      7.81454     11.40038        -0.220085     -0.319006     -0.904554
     -1.66732      5.08238      8.27560        -0.244143      0.103623     -0.033517
      1.52352     10.41371     11.46238        -0.094000      0.082704     -0.049710
      1.65838      5.01784     11.25349        -0.155073     -0.061292     -0.029458
      5.29844      9.01961     13.21243        -0.142409      0.116547      0.109681
      8.29715      1.12774      3.41813        -0.036140     -0.034600      0.029297
     -1.62940     10.63493      8.23463        -0.071773     -0.124938     -0.055133
      7.52388      0.30863      0.53440        -0.017081     -0.025480      0.024949
     -0.22210      7.92045      7.10021        -0.070951     -0.007169     -0.021604
      6.31199      6.89286     11.16013         0.403373      0.201277      0.021275
 -----------------------------------------------------------------------------------
    total drift:                               -0.003001     -0.005283      0.002924


--------------------------------------------------------------------------------------------------------



  FREE ENERGIE OF THE ION-ELECTRON SYSTEM (eV)
  ---------------------------------------------------
  free  energy   TOTEN  =     -1171.82544286 eV

  energy  without entropy=    -1171.82544286  energy(sigma->0) =    -1171.82544286
 


--------------------------------------------------------------------------------------------------------


    POTLOK:  cpu time    2.3569: real time    2.3627


--------------------------------------------------------------------------------------------------------


 stress matrix after NEB project (eV)
      0.00000      0.00000      0.00000
      0.00000      0.00000      0.00000
      0.00000      0.00000      0.00000
  FORCES: max atom, RMS     0.984083    0.360566
  FORCE total and by dimension    3.798800    0.904554
  Stress total and by dimension    0.000000    0.000000
     LOOP+:  cpu time75439.9324: real time75675.7489
    4ORBIT:  cpu time    0.0000: real time    0.0000
 


 total charge     
 
# of ion       s       p       d       tot
------------------------------------------
    1        1.578   3.720   0.000   5.299
    2        1.576   3.732   0.000   5.308
    3        1.579   3.730   0.000   5.309
    4        1.577   3.721   0.000   5.298
    5        1.577   3.727   0.000   5.304
    6        1.578   3.692   0.000   5.271
    7        1.580   3.730   0.000   5.310
    8        1.579   3.694   0.000   5.273
    9        1.582   3.694   0.000   5.276
   10        1.578   3.720   0.000   5.298
   11        1.580   3.714   0.000   5.294
   12        1.581   3.713   0.000   5.294
   13        1.573   3.741   0.000   5.314
   14        1.578   3.685   0.000   5.263
   15        1.575   3.747   0.000   5.322
   16        1.579   3.662   0.000   5.241
   17        1.579   3.712   0.000   5.291
   18        1.578   3.690   0.000   5.268
   19        1.578   3.733   0.000   5.310
   20        1.580   3.729   0.000   5.309
   21        1.583   3.723   0.000   5.305
   22        1.579   3.725   0.000   5.304
   23        1.582   3.727   0.000   5.309
   24        1.580   3.722   0.000   5.302
   25        1.579   3.728   0.000   5.307
   26        1.584   3.687   0.000   5.271
   27        1.578   3.677   0.000   5.254
   28        1.580   3.727   0.000   5.307
   29        1.580   3.734   0.000   5.314
   30        1.581   3.724   0.000   5.305
   31        1.580   3.733   0.000   5.313
   32        1.583   3.690   0.000   5.273
   33        1.581   3.726   0.000   5.307
   34        1.581   3.725   0.000   5.306
   35        1.581   3.728   0.000   5.309
   36        1.580   3.723   0.000   5.304
   37        1.578   3.737   0.000   5.315
   38        1.580   3.683   0.000   5.264
   39        1.575   3.759   0.000   5.334
   40        1.575   3.743   0.000   5.319
   41        1.576   3.749   0.000   5.326
   42        1.578   3.728   0.000   5.307
   43        1.579   3.732   0.000   5.311
   44        1.578   3.663   0.000   5.242
   45        1.582   3.724   0.000   5.305
   46        1.579   3.730   0.000   5.309
   47        1.575   3.745   0.000   5.320
   48        1.578   3.739   0.000   5.316
   49        1.579   3.722   0.000   5.301
   50        1.575   3.747   0.000   5.322
   51        1.579   3.734   0.000   5.313
   52        1.582   3.714   0.000   5.296
   53        1.579   3.726   0.000   5.305
   54        1.579   3.705   0.000   5.284
   55        1.579   3.730   0.000   5.308
   56        1.579   3.719   0.000   5.299
   57        1.584   3.680   0.000   5.263
   58        1.579   3.717   0.000   5.296
   59        1.580   3.712   0.000   5.293
   60        1.577   3.737   0.000   5.314
   61        1.582   3.685   0.000   5.267
   62        1.573   3.750   0.000   5.323
   63        1.576   3.735   0.000   5.311
   64        1.581   3.715   0.000   5.295
   65        1.575   3.734   0.000   5.309
   66        1.582   3.679   0.000   5.261
   67        1.578   3.717   0.000   5.296
   68        1.581   3.725   0.000   5.305
   69        1.575   3.742   0.000   5.317
   70        1.575   3.747   0.000   5.321
   71        1.580   3.684   0.000   5.264
   72        1.579   3.683   0.000   5.263
   73        0.637   0.994   0.000   1.631
   74        0.642   0.998   0.000   1.640
   75        0.644   1.006   0.000   1.650
   76        0.634   0.986   0.000   1.621
   77        0.639   0.998   0.000   1.637
   78        0.642   0.994   0.000   1.636
   79        0.637   0.993   0.000   1.630
   80        0.643   1.001   0.000   1.645
   81        0.636   0.990   0.000   1.626
   82        0.637   0.992   0.000   1.629
   83        0.639   0.998   0.000   1.637
   84        0.640   1.004   0.000   1.644
   85        0.643   0.996   0.000   1.639
   86        0.637   0.992   0.000   1.629
   87        0.639   0.994   0.000   1.633
   88        0.637   0.992   0.000   1.630
   89        0.641   0.997   0.000   1.639
   90        0.639   0.997   0.000   1.636
   91        0.644   1.000   0.000   1.644
   92        0.640   0.999   0.000   1.638
   93        0.638   0.995   0.000   1.633
   94        0.642   0.993   0.000   1.635
   95        0.640   0.991   0.000   1.632
   96        0.637   0.986   0.000   1.623
   97        0.639   1.001   0.000   1.640
   98        0.643   0.995   0.000   1.638
   99        0.642   0.995   0.000   1.637
  100        0.644   0.997   0.000   1.641
  101        0.640   0.994   0.000   1.634
  102        0.638   0.994   0.000   1.633
  103        0.640   0.996   0.000   1.637
  104        0.637   0.991   0.000   1.628
  105        0.636   0.992   0.000   1.628
  106        0.349   0.467   0.000   0.817
  107        0.350   0.469   0.000   0.819
  108        0.348   0.467   0.000   0.815
  109        0.089   0.061   9.257   9.407
  110        0.101   0.076   9.257   9.434
  111        0.086   0.054   9.260   9.401
--------------------------------------------------
tot        136.115 302.192  27.775 466.082
 


 magnetization (x)
 
# of ion       s       p       d       tot
------------------------------------------
    1        0.000   0.000   0.000   0.000
    2       -0.000   0.000   0.000  -0.000
    3        0.000   0.000   0.000   0.000
    4        0.000  -0.000   0.000  -0.000
    5        0.000   0.000   0.000   0.000
    6       -0.000  -0.000   0.000  -0.000
    7        0.000  -0.000   0.000  -0.000
    8       -0.000   0.000   0.000  -0.000
    9        0.000  -0.000   0.000  -0.000
   10        0.000   0.000   0.000   0.000
   11        0.000  -0.000   0.000  -0.000
   12        0.000   0.000   0.000   0.000
   13        0.000   0.000   0.000   0.000
   14        0.000  -0.000   0.000  -0.000
   15       -0.000  -0.000   0.000  -0.000
   16        0.000   0.000   0.000   0.000
   17       -0.000   0.000   0.000  -0.000
   18       -0.000  -0.000   0.000  -0.000
   19        0.000   0.000   0.000   0.000
   20       -0.000  -0.000   0.000  -0.000
   21        0.000   0.000   0.000   0.000
   22       -0.000  -0.000   0.000  -0.000
   23        0.000   0.000   0.000   0.000
   24       -0.000   0.000   0.000  -0.000
   25       -0.000  -0.000   0.000  -0.000
   26       -0.000   0.000   0.000   0.000
   27       -0.000  -0.000   0.000  -0.000
   28       -0.000   0.000   0.000   0.000
   29       -0.000  -0.000   0.000  -0.000
   30        0.000   0.000   0.000   0.000
   31        0.000   0.000   0.000   0.000
   32       -0.000   0.000   0.000  -0.000
   33       -0.000   0.000   0.000   0.000
   34        0.000   0.000   0.000   0.000
   35       -0.000  -0.000   0.000  -0.000
   36        0.000  -0.000   0.000  -0.000
   37       -0.000   0.000   0.000   0.000
   38       -0.000  -0.000   0.000  -0.000
   39        0.000  -0.000   0.000  -0.000
   40       -0.000  -0.000   0.000  -0.000
   41        0.000  -0.000   0.000  -0.000
   42       -0.000  -0.000   0.000  -0.000
   43        0.000   0.000   0.000   0.000
   44        0.000   0.000   0.000   0.000
   45        0.000   0.000   0.000   0.000
   46        0.000   0.000   0.000   0.000
   47        0.000  -0.000   0.000  -0.000
   48        0.000   0.000   0.000   0.000
   49        0.000  -0.000   0.000  -0.000
   50       -0.000   0.000   0.000   0.000
   51       -0.000   0.000   0.000  -0.000
   52        0.000   0.000   0.000   0.000
   53       -0.000   0.000   0.000  -0.000
   54        0.000  -0.000   0.000  -0.000
   55       -0.000   0.000   0.000  -0.000
   56       -0.000  -0.000   0.000  -0.000
   57        0.000   0.000   0.000   0.000
   58       -0.000  -0.000   0.000  -0.000
   59        0.000  -0.000   0.000  -0.000
   60       -0.000  -0.000   0.000  -0.000
   61        0.000   0.000   0.000   0.000
   62        0.000   0.000   0.000   0.000
   63        0.000   0.000   0.000   0.000
   64        0.000   0.000   0.000   0.000
   65        0.000   0.000   0.000   0.000
   66       -0.000  -0.000   0.000  -0.000
   67        0.000  -0.000   0.000  -0.000
   68        0.000  -0.000   0.000  -0.000
   69       -0.000  -0.000   0.000  -0.000
   70        0.000  -0.000   0.000  -0.000
   71       -0.000   0.000   0.000   0.000
   72       -0.000  -0.000   0.000  -0.000
   73       -0.000  -0.000   0.000  -0.000
   74        0.000  -0.000   0.000  -0.000
   75        0.000   0.000   0.000   0.000
   76       -0.000  -0.000   0.000  -0.000
   77        0.000  -0.000   0.000  -0.000
   78       -0.000   0.000   0.000   0.000
   79        0.000   0.000   0.000   0.000
   80       -0.000  -0.000   0.000  -0.000
   81       -0.000  -0.000   0.000  -0.000
   82        0.000  -0.000   0.000  -0.000
   83        0.000   0.000   0.000   0.000
   84       -0.000  -0.000   0.000  -0.000
   85        0.000  -0.000   0.000   0.000
   86       -0.000  -0.000   0.000  -0.000
   87        0.000   0.000   0.000   0.000
   88       -0.000  -0.000   0.000  -0.000
   89        0.000  -0.000   0.000  -0.000
   90       -0.000   0.000   0.000  -0.000
   91       -0.000  -0.000   0.000  -0.000
   92        0.000  -0.000   0.000  -0.000
   93       -0.000  -0.000   0.000  -0.000
   94        0.000   0.000   0.000   0.000
   95        0.000   0.000   0.000   0.000
   96        0.000  -0.000   0.000   0.000
   97       -0.000   0.000   0.000  -0.000
   98       -0.000  -0.000   0.000  -0.000
   99        0.000   0.000   0.000   0.000
  100        0.000   0.000   0.000   0.000
  101        0.000   0.000   0.000   0.000
  102        0.000  -0.000   0.000  -0.000
  103        0.000   0.000   0.000   0.000
  104       -0.000   0.000   0.000  -0.000
  105       -0.000   0.000   0.000   0.000
  106        0.000   0.000   0.000   0.000
  107       -0.000  -0.000   0.000  -0.000
  108        0.000  -0.000   0.000  -0.000
  109        0.000  -0.000  -0.000  -0.000
  110       -0.000  -0.000   0.000   0.000
  111       -0.000   0.000  -0.000  -0.000
--------------------------------------------------
tot         -0.000  -0.000  -0.000  -0.000
 

 total amount of memory used by VASP MPI-rank0   225419. kBytes
=======================================================================

   base      :      30000. kBytes
   nonlr-proj:      31129. kBytes
   fftplans  :      69849. kBytes
   grid      :      56122. kBytes
   one-center:        870. kBytes
   HF        :        194. kBytes
   wavefun   :      37255. kBytes
 
  
  
 General timing and accounting informations for this job:
 ========================================================
  
                  Total CPU time used (sec):    75462.164
                            User time (sec):    68403.673
                          System time (sec):     7058.489
                         Elapsed time (sec):    75698.280
  
                   Maximum memory used (kb):      451508.
                   Average memory used (kb):           0.
  
                          Minor page faults:      4681828
                          Major page faults:           12
                 Voluntary context switches:         1120
